 Gaussian 16, Revision C.01,
 Gaussian 16:  ES64L-G16RevC.01  3-Jul-2019

 -----------------
 # CCSD(T)/cc-PVQZ
 -----------------

 -------------------
 Title Card Required
 -------------------
 Symbolic Z-matrix:
 Charge =  0 Multiplicity = 1

                         Standard orientation:
 ---------------------------------------------------------------------
 Center     Atomic      Atomic             Coordinates (Angstroms)
 Number     Number       Type             X           Y           Z
 ---------------------------------------------------------------------
      1          6           0        0.000000    0.000000    0.598331
      2          1           0        0.000000    0.000000    1.660579
      3          6           0        0.000000    0.000000   -0.598331
      4          1           0        0.000000    0.000000   -1.660579
 ---------------------------------------------------------------------

 SCF Done:  E(RHF) =  -76.8549483465     A.U. after    8 cycles
 E2 =    -0.3282578544D+00 EUMP2 =    -0.77183206200878D+02
 CCSD(T)= -0.77209131566D+02

 The electronic state is 1-SGG.
 Alpha  occ. eigenvalues --  -11.23984 -11.23587  -1.03145  -0.76620  -0.68104
 Alpha  occ. eigenvalues --   -0.41205  -0.41205
 Alpha virt. eigenvalues --    0.12963   0.13790   0.16266   0.16266   0.23056
 Alpha virt. eigenvalues --    0.32506   0.32506   0.35355   0.38008   0.43398
 Alpha virt. eigenvalues --    0.43398   0.48443   0.57759   0.57759   0.63802

 Mulliken charges:
               1
     1  C   -0.161959
     2  H    0.161959
     3  C   -0.161959
     4  H    0.161959
 Sum of Mulliken charges =   0.00000

 Dipole moment (field-independent basis, Debye):
    X=              0.0000    Y=             -0.0000    Z=             -0.0000  Tot=              0.0000
 Quadrupole moment (field-independent basis, Debye-Ang):
   XX=            -13.9304   YY=            -13.9304   ZZ=             -6.6676
   XY=              0.0000   XZ=             -0.0000   YZ=              0.0000

 Normal termination of Gaussian 16 at Fri Jul 28 16:43:51 2023.
