 Gaussian 16, Revision C.01,
 Gaussian 16:  ES64L-G16RevC.01  3-Jul-2019

 -----------------
 # CCSD(T)/cc-PVQZ
 -----------------

 -------------------
 Title Card Required
 -------------------
 Symbolic Z-matrix:
 Charge =  0 Multiplicity = 1

                         Standard orientation:
 ---------------------------------------------------------------------
 Center     Atomic      Atomic             Coordinates (Angstroms)
 Number     Number       Type             X           Y           Z
 ---------------------------------------------------------------------
      1          6           0        0.000000    0.000000    0.662348
      2          1           0        0.000000    0.921462    1.232396
      3          1           0       -0.000000   -0.921462    1.232396
      4          6           0        0.000000    0.000000   -0.662348
      5          1           0       -0.000000   -0.921462   -1.232396
      6          1           0        0.000000    0.921462   -1.232396
 ---------------------------------------------------------------------

 SCF Done:  E(RHF) =  -78.0693136629     A.U. after    9 cycles
 E2 =    -0.3558787675D+00 EUMP2 =    -0.78425192430486D+02
 CCSD(T)= -0.78461628103D+02

 The electronic state is 1-AG.
 Alpha  occ. eigenvalues --  -11.22883 -11.22704  -1.03544  -0.79186  -0.64286
 Alpha  occ. eigenvalues --   -0.58997  -0.50510  -0.37902
 Alpha virt. eigenvalues --    0.13103   0.14309   0.15243   0.16258   0.20195
 Alpha virt. eigenvalues --    0.28193   0.30190   0.33142   0.37053   0.37617
 Alpha virt. eigenvalues --    0.43846   0.46910   0.47956   0.49601   0.51359

 Mulliken charges:
               1
     1  C   -0.239499
     2  H    0.119750
     3  H    0.119750
     4  C   -0.239499
     5  H    0.119750
     6  H    0.119750
 Sum of Mulliken charges =   0.00000

 Dipole moment (field-independent basis, Debye):
    X=             -0.0000    Y=             -0.0000    Z=              0.0000  Tot=              0.0000
 Quadrupole moment (field-independent basis, Debye-Ang):
   XX=            -15.9404   YY=            -12.3925   ZZ=            -12.1262
   XY=              0.0000   XZ=             -0.0000   YZ=              0.0000

 .4522415\MP4DQ=-78.4425252\MP4SDQ=-78.4453248\CCSD=-78.445426\CCSD(T)=
 Normal termination of Gaussian 16 at Fri Jul 28 16:44:34 2023.
