 Gaussian 16, Revision C.01,
 Gaussian 16:  ES64L-G16RevC.01  3-Jul-2019

 -----------------
 # CCSD(T)/cc-PVQZ
 -----------------

 -------------------
 Title Card Required
 -------------------
 Symbolic Z-matrix:
 Charge =  0 Multiplicity = 3

                         Standard orientation:
 ---------------------------------------------------------------------
 Center     Atomic      Atomic             Coordinates (Angstroms)
 Number     Number       Type             X           Y           Z
 ---------------------------------------------------------------------
      1          6           0        0.000000    0.000000    0.000000
 ---------------------------------------------------------------------

 SCF Done:  E(UHF) =  -37.6933076337     A.U. after    9 cycles
 E2 =    -0.7205511819D-01 EUMP2 =    -0.37765362751860D+02
 CCSD(T)= -0.37786539732D+02

 Unable to determine electronic state:  an orbital has unidentified symmetry.
 Alpha  occ. eigenvalues --  -11.34538  -0.82898  -0.43874  -0.43874
 Alpha virt. eigenvalues --    0.03032   0.31330   0.31965   0.31965   0.37521
 Alpha virt. eigenvalues --    0.60638   0.60638   0.61705   0.61705   0.62174
 Alpha virt. eigenvalues --    1.48446   1.48446   1.52349   1.88523   1.88695

  Beta  occ. eigenvalues --  -11.30009  -0.58337
  Beta virt. eigenvalues --    0.06091   0.11003   0.11003   0.35374   0.39838
  Beta virt. eigenvalues --    0.44122   0.44122   0.64902   0.65676   0.65676
  Beta virt. eigenvalues --    0.68282   0.68282   1.54850   1.60304   1.60304

 Mulliken charges and spin densities:
               1          2
     1  C    0.000000   2.000000
 Sum of Mulliken charges =   0.00000   2.00000

 Dipole moment (field-independent basis, Debye):
    X=              0.0000    Y=              0.0000    Z=              0.0000  Tot=              0.0000
 Quadrupole moment (field-independent basis, Debye-Ang):
   XX=             -6.8172   YY=             -6.8172   ZZ=             -4.8296
   XY=              0.0000   XZ=              0.0000   YZ=             -0.0000

 37.779853\MP4SDQ=-37.782434\CCSD=-37.7841806\CCSD(T)=-37.7865397\S2=2.
 Normal termination of Gaussian 16 at Fri Jul 28 16:44:37 2023.
