 Gaussian 16, Revision C.01,
 Gaussian 16:  ES64L-G16RevC.01  3-Jul-2019

 -----------------
 # CCSD(T)/cc-PVQZ
 -----------------

 -------------------
 Title Card Required
 -------------------
 Symbolic Z-matrix:
 Charge =  0 Multiplicity = 1

                         Standard orientation:
 ---------------------------------------------------------------------
 Center     Atomic      Atomic             Coordinates (Angstroms)
 Number     Number       Type             X           Y           Z
 ---------------------------------------------------------------------
      1          6           0        0.000000    0.000000    0.000000
      2          1           0        0.628740    0.628740    0.628740
      3          1           0       -0.628740   -0.628740    0.628740
      4          1           0       -0.628740    0.628740   -0.628740
      5          1           0        0.628740   -0.628740   -0.628740
 ---------------------------------------------------------------------

 SCF Done:  E(RHF) =  -40.2161525289     A.U. after    8 cycles
 E2 =    -0.2100928318D+00 EUMP2 =    -0.40426245360686D+02
 CCSD(T)= -0.40450884735D+02

 The electronic state is 1-A1.
 Alpha  occ. eigenvalues --  -11.20586  -0.94271  -0.54496  -0.54496  -0.54496
 Alpha virt. eigenvalues --    0.11541   0.19955   0.19955   0.19955   0.27717
 Alpha virt. eigenvalues --    0.27717   0.27717   0.48515   0.53305   0.53305
 Alpha virt. eigenvalues --    0.53305   0.54020   0.54020   0.62901   0.82780

 Mulliken charges:
               1
     1  C   -0.265884
     2  H    0.066471
     3  H    0.066471
     4  H    0.066471
     5  H    0.066471
 Sum of Mulliken charges =  -0.00000

 Dipole moment (field-independent basis, Debye):
    X=             -0.0000    Y=             -0.0000    Z=              0.0000  Tot=              0.0000
 Quadrupole moment (field-independent basis, Debye-Ang):
   XX=             -8.4158   YY=             -8.4158   ZZ=             -8.4158
   XY=             -0.0000   XZ=             -0.0000   YZ=             -0.0000

 DQ=-40.4428403\MP4SDQ=-40.4439656\CCSD=-40.4439589\CCSD(T)=-40.4508847
 Normal termination of Gaussian 16 at Fri Jul 28 16:44:46 2023.
