 Gaussian 16, Revision C.01,
 Gaussian 16:  ES64L-G16RevC.01  3-Jul-2019

 -----------------
 # CCSD(T)/cc-PVQZ
 -----------------

 -------------------
 Title Card Required
 -------------------
 Symbolic Z-matrix:
 Charge =  0 Multiplicity = 1

                         Standard orientation:
 ---------------------------------------------------------------------
 Center     Atomic      Atomic             Coordinates (Angstroms)
 Number     Number       Type             X           Y           Z
 ---------------------------------------------------------------------
      1          1           0        0.000000    0.000000    0.371961
      2          1           0        0.000000    0.000000   -0.371961
 ---------------------------------------------------------------------

 SCF Done:  E(RHF) =  -1.13342207647     A.U. after    6 cycles
 E2 =    -0.3312442709D-01 EUMP2 =    -0.11665465035657D+01
 CCSD(T)= -0.11737936840D+01

 The electronic state is 1-SGG.
 Alpha  occ. eigenvalues --   -0.59368
 Alpha virt. eigenvalues --    0.14731   0.23182   0.50978   0.50978   0.52082
 Alpha virt. eigenvalues --    0.80223   0.81477   0.81477   1.10620   1.31334
 Alpha virt. eigenvalues --    1.58251   1.94142   1.94142   2.15314   2.15314

 Mulliken charges:
               1
     1  H   -0.000000
     2  H   -0.000000
 Sum of Mulliken charges =  -0.00000

 Dipole moment (field-independent basis, Debye):
    X=             -0.0000    Y=             -0.0000    Z=             -0.0000  Tot=              0.0000
 Quadrupole moment (field-independent basis, Debye-Ang):
   XX=             -2.0945   YY=             -2.0945   ZZ=             -1.4398
   XY=             -0.0000   XZ=             -0.0000   YZ=              0.0000

 171\CCSD=-1.1737937\CCSD(T)=-1.1737937\RMSD=1.100e-09\PG=D*H [C*(H1.H1
 Normal termination of Gaussian 16 at Fri Jul 28 16:44:47 2023.
