                         Program Version 4.2.0 -  RELEASE  -
|  1> ! B3LYP/G 6-31G* opt freq noautostart miniprint nopop
|  2> %maxcore  1000
|  3> %pal nprocs   4 end
|  4> * xyz   0   1
|  5> C      1.22608900   -0.21604500    0.00000000
|  6> H      1.29808600   -0.85437400    0.88687500
|  7> H      2.07310500    0.47931300    0.00000000
|  8> H      1.29808600   -0.85437400   -0.88687500
|  9> C     -0.09045900    0.54259300    0.00000000
| 10> H     -0.14892000    1.19431200   -0.88763500
| 11> H     -0.14892000    1.19431200    0.88763500
| 12> O     -1.14492400   -0.41615200    0.00000000
| 13> H     -1.98514600    0.06702700    0.00000000
| 14>  *
| 15>
| 16>                          ****END OF INPUT****
FINAL SINGLE POINT ENERGY      -155.030850144140
FINAL SINGLE POINT ENERGY      -155.030851459354
FINAL SINGLE POINT ENERGY      -155.030851628795
                    ***********************HURRAY********************

CARTESIAN COORDINATES (ANGSTROEM)
---------------------------------
  C      1.225996   -0.216259    0.000000
  H      1.298728   -0.854496    0.887122
  H      2.072202    0.479645    0.000000
  H      1.298728   -0.854496   -0.887122
  C     -0.091031    0.542128   -0.000000
  H     -0.148320    1.194042   -0.887845
  H     -0.148320    1.194042    0.887845
  O     -1.144833   -0.414339    0.000000
  H     -1.986152    0.066347    0.000000

ORBITAL ENERGIES
----------------

  NO   OCC          E(Eh)            E(eV)
   0   2.0000     -19.129958      -520.5526
   1   2.0000     -10.221426      -278.1392
   2   2.0000     -10.163679      -276.5678
   3   2.0000      -1.008536       -27.4437
   4   2.0000      -0.743043       -20.2192
   5   2.0000      -0.605505       -16.4766
   6   2.0000      -0.510341       -13.8871
   7   2.0000      -0.458841       -12.4857
   8   2.0000      -0.394307       -10.7296
   9   2.0000      -0.378981       -10.3126
  10   2.0000      -0.360568        -9.8116
  11   2.0000      -0.324523        -8.8307
  12   2.0000      -0.260970        -7.1014
  13   0.0000       0.077371         2.1054
  14   0.0000       0.119742         3.2584
  15   0.0000       0.157353         4.2818
  16   0.0000       0.162647         4.4258
  17   0.0000       0.175790         4.7835

Total SCF time: 0 days 0 hours 0 min 2 sec

FINAL SINGLE POINT ENERGY      -155.030851713226

DIPOLE MOMENT
-------------
                                X             Y             Z
Electronic contribution:     -2.61250      -0.72054       0.00000
Nuclear contribution   :      2.50146       1.32455      -0.00000
                        -----------------------------------------
Total Dipole Moment    :     -0.11104       0.60400      -0.00000
                        -----------------------------------------
Magnitude (a.u.)       :      0.61413
Magnitude (Debye)      :      1.56098

VIBRATIONAL FREQUENCIES
-----------------------

Scaling factor for frequencies =  1.000000000  (already applied!)

   0:         0.00 cm**-1
   1:         0.00 cm**-1
   2:         0.00 cm**-1
   3:         0.00 cm**-1
   4:         0.00 cm**-1
   5:         0.00 cm**-1
   6:       247.04 cm**-1
   7:       297.95 cm**-1
   8:       417.19 cm**-1
   9:       829.26 cm**-1
  10:       912.87 cm**-1
  11:      1042.86 cm**-1
  12:      1127.33 cm**-1
  13:      1193.54 cm**-1
  14:      1290.79 cm**-1
  15:      1310.06 cm**-1
  16:      1427.67 cm**-1
  17:      1481.10 cm**-1
  18:      1513.41 cm**-1
  19:      1530.82 cm**-1
  20:      1560.08 cm**-1
  21:      2979.46 cm**-1
  22:      3002.62 cm**-1
  23:      3056.45 cm**-1
  24:      3127.85 cm**-1
  25:      3130.25 cm**-1
  26:      3746.34 cm**-1

IR SPECTRUM
-----------

 Mode    freq (cm**-1)   T**2         TX         TY         TZ
-------------------------------------------------------------------
   6:       247.04   34.466986  (  0.000000   0.000000   5.870859)
   7:       297.95   96.413769  (  0.000000  -0.000000  -9.819051)
   8:       417.19   11.191316  ( -3.044491  -1.386504   0.000000)
   9:       829.26    0.010314  (  0.000000   0.000000   0.101559)
  10:       912.87    9.658257  ( -2.535134  -1.797596   0.000000)
  11:      1042.86   55.558431  (  6.112201   4.266080  -0.000000)
  12:      1127.33   24.820349  (  3.899587   3.100576  -0.000000)
  13:      1193.54    4.854407  (  0.000000   0.000000   2.203272)
  14:      1290.79   87.756341  (  6.596236   6.651767  -0.000000)
  15:      1310.06    0.074441  ( -0.000000  -0.000000  -0.272838)
  16:      1427.67    0.420648  (  0.644786  -0.069988  -0.000000)
  17:      1481.10   16.722949  ( -3.749424   1.632413  -0.000000)
  18:      1513.41    4.326897  ( -0.000000  -0.000000   2.080119)
  19:      1530.82    3.098822  (  0.846660   1.543369   0.000000)
  20:      1560.08    2.514889  (  1.404174   0.737011  -0.000000)
  21:      2979.46   74.437754  (  0.072015   8.627431  -0.000000)
  22:      3002.62   77.954983  (  0.000000  -0.000000  -8.829212)
  23:      3056.45   15.778556  ( -3.594850   1.689854   0.000000)
  24:      3127.85   31.634023  ( -2.503356  -5.036589  -0.000002)
  25:      3130.25   34.876842  (  0.000001   0.000002  -5.905662)
  26:      3746.34   10.070398  ( -3.092254   0.712996   0.000000)

--------------------------
THERMOCHEMISTRY AT 298.15K
--------------------------

Temperature         ... 298.15 K
Pressure            ... 1.00 atm
Total Mass          ... 46.07 AMU

Throughout the following assumptions are being made:
  (1) The electronic state is orbitally nondegenerate
  (2) There are no thermally accessible electronically excited states
  (3) Hindered rotations indicated by low frequency modes are not
      treated as such but are treated as vibrations and this may
      cause some error
  (4) All equations used are the standard statistical mechanics
      equations for an ideal gas
  (5) All vibrations are strictly harmonic

freq.     247.04  E(vib)   ...       0.31
freq.     297.95  E(vib)   ...       0.27
freq.     417.19  E(vib)   ...       0.18
freq.     829.26  E(vib)   ...       0.04
freq.     912.87  E(vib)   ...       0.03
freq.    1042.86  E(vib)   ...       0.02
freq.    1127.33  E(vib)   ...       0.01
freq.    1193.54  E(vib)   ...       0.01
freq.    1290.79  E(vib)   ...       0.01
freq.    1310.06  E(vib)   ...       0.01
freq.    1427.67  E(vib)   ...       0.00
freq.    1481.10  E(vib)   ...       0.00
freq.    1513.41  E(vib)   ...       0.00
freq.    1530.82  E(vib)   ...       0.00
freq.    1560.08  E(vib)   ...       0.00
freq.    2979.46  E(vib)   ...       0.00
freq.    3002.62  E(vib)   ...       0.00
freq.    3056.45  E(vib)   ...       0.00
freq.    3127.85  E(vib)   ...       0.00
freq.    3130.25  E(vib)   ...       0.00
freq.    3746.34  E(vib)   ...       0.00

------------
INNER ENERGY
------------

The inner energy is: U= E(el) + E(ZPE) + E(vib) + E(rot) + E(trans)
    E(el)   - is the total energy from the electronic structure calculation
              = E(kin-el) + E(nuc-el) + E(el-el) + E(nuc-nuc)
    E(ZPE)  - the the zero temperature vibrational energy from the frequency calculation
    E(vib)  - the the finite temperature correction to E(ZPE) due to population
              of excited vibrational states
    E(rot)  - is the rotational thermal energy
    E(trans)- is the translational thermal energy

Summary of contributions to the inner energy U:
Electronic energy                ...   -155.03085171 Eh
Zero point energy                ...      0.08024833 Eh      50.36 kcal/mol
Thermal vibrational correction   ...      0.00144616 Eh       0.91 kcal/mol
Thermal rotational correction    ...      0.00141627 Eh       0.89 kcal/mol
Thermal translational correction ...      0.00141627 Eh       0.89 kcal/mol
-----------------------------------------------------------------------
Total thermal energy                   -154.94632468 Eh

Summary of corrections to the electronic energy:
(perhaps to be used in another calculation)
Total thermal correction                  0.00427870 Eh       2.68 kcal/mol
Non-thermal (ZPE) correction              0.08024833 Eh      50.36 kcal/mol
-----------------------------------------------------------------------
Total correction                          0.08452703 Eh      53.04 kcal/mol

--------
ENTHALPY
--------

The enthalpy is H = U + kB*T
                kB is Boltzmann's constant
Total free energy                 ...   -154.94632468 Eh
Thermal Enthalpy correction       ...      0.00094421 Eh       0.59 kcal/mol
-----------------------------------------------------------------------
Total Enthalpy                    ...   -154.94538047 Eh

Note: Rotational entropy computed according to Herzberg
Infrared and Raman Spectra, Chapter V,1, Van Nostrand Reinhold, 1945
Point Group:  Cs, Symmetry Number:   1
Rotational constants in cm-1:     1.166895     0.311965     0.271319

Vibrational entropy computed according to the QRRHO of S. Grimme
Chem.Eur.J. 2012 18 9955

-------
ENTROPY
-------

The entropy contributions are T*S = T*(S(el)+S(vib)+S(rot)+S(trans))
     S(el)   - electronic entropy
     S(vib)  - vibrational entropy
     S(rot)  - rotational entropy
     S(trans)- translational entropy
The entropies will be listed as mutliplied by the temperature to get
units of energy

Electronic entropy                ...      0.00000000 Eh      0.00 kcal/mol
Vibrational entropy               ...      0.00223391 Eh      1.40 kcal/mol
Rotational entropy                ...      0.01060369 Eh      6.65 kcal/mol
Translational entropy             ...      0.01777359 Eh     11.15 kcal/mol
-----------------------------------------------------------------------
Final entropy term                ...      0.03061119 Eh     19.21 kcal/mol

In case the symmetry of your molecule has not been determined correctly
or in case you have a reason to use a different symmetry number we print
out the resulting rotational entropy values for sn=1,12 :
 --------------------------------------------------------
|  sn= 1 | S(rot)=       0.01060369 Eh      6.65 kcal/mol|
|  sn= 2 | S(rot)=       0.00994923 Eh      6.24 kcal/mol|
|  sn= 3 | S(rot)=       0.00956640 Eh      6.00 kcal/mol|
|  sn= 4 | S(rot)=       0.00929478 Eh      5.83 kcal/mol|
|  sn= 5 | S(rot)=       0.00908409 Eh      5.70 kcal/mol|
|  sn= 6 | S(rot)=       0.00891194 Eh      5.59 kcal/mol|
|  sn= 7 | S(rot)=       0.00876640 Eh      5.50 kcal/mol|
|  sn= 8 | S(rot)=       0.00864032 Eh      5.42 kcal/mol|
|  sn= 9 | S(rot)=       0.00852911 Eh      5.35 kcal/mol|
|  sn=10 | S(rot)=       0.00842963 Eh      5.29 kcal/mol|
|  sn=11 | S(rot)=       0.00833964 Eh      5.23 kcal/mol|
|  sn=12 | S(rot)=       0.00825749 Eh      5.18 kcal/mol|
 --------------------------------------------------------

-------------------
GIBBS FREE ENERGY
-------------------

The Gibbs free energy is G = H - T*S

Total enthalpy                    ...   -154.94538047 Eh
Total entropy correction          ...     -0.03061119 Eh    -19.21 kcal/mol
-----------------------------------------------------------------------
Final Gibbs free energy         ...   -154.97599166 Eh

For completeness - the Gibbs free energy minus the electronic energy
G-E(el)                           ...      0.05486006 Eh     34.43 kcal/mol

                             ****ORCA TERMINATED NORMALLY****
TOTAL RUN TIME: 0 days 0 hours 0 minutes 47 seconds 306 msec
