 Gaussian 16, Revision C.01,
 Gaussian 16:  ES64L-G16RevC.01  3-Jul-2019

 -------------------------
 # opt freq B3LYP/def2TZVP
 -------------------------

 -------------------
 Title Card Required
 -------------------
 Symbolic Z-matrix:
 Charge =  0 Multiplicity = 1

 SCF Done:  E(RB3LYP) =  -77.3643825127     A.U. after    9 cycles
 SCF Done:  E(RB3LYP) =  -77.3644941364     A.U. after    6 cycles
 Optimization completed.
    -- Stationary point found.
 Normal termination of Gaussian 16 at Fri Jul 28 16:26:39 2023.

 --------------------------------------------------------------------
 #N Geom=AllCheck Guess=TCheck SCRF=Check GenChk RB3LYP/def2TZVP Freq
 --------------------------------------------------------------------

 Structure from the checkpoint file:  "/kimariyb/g16/scratch/Gau-11497.chk"
 -------------------
 Title Card Required
 -------------------
 Charge =  0 Multiplicity = 1

                         Standard orientation:
 ---------------------------------------------------------------------
 Center     Atomic      Atomic             Coordinates (Angstroms)
 Number     Number       Type             X           Y           Z
 ---------------------------------------------------------------------
      1          6           0        0.000000    0.000000    0.598331
      2          1           0        0.000000    0.000000    1.660579
      3          6           0        0.000000    0.000000   -0.598331
      4          1           0        0.000000    0.000000   -1.660579
 ---------------------------------------------------------------------

 SCF Done:  E(RB3LYP) =  -77.3644941364     A.U. after    1 cycles

 The electronic state is 1-SGG.
 Alpha  occ. eigenvalues --  -10.18281 -10.18019  -0.75890  -0.57358  -0.50441
 Alpha  occ. eigenvalues --   -0.30055  -0.30055
 Alpha virt. eigenvalues --    0.02166   0.02166   0.05918   0.08782   0.12942
 Alpha virt. eigenvalues --    0.21218   0.21218   0.21948   0.32138   0.32138
 Alpha virt. eigenvalues --    0.35173   0.39218   0.54570   0.59374   0.59374

 Mulliken charges:
               1
     1  C   -0.190096
     2  H    0.190096
     3  C   -0.190096
     4  H    0.190096
 Sum of Mulliken charges =  -0.00000

 Dipole moment (field-independent basis, Debye):
    X=              0.0000    Y=              0.0000    Z=              0.0000  Tot=              0.0000
 Quadrupole moment (field-independent basis, Debye-Ang):
   XX=            -13.7201   YY=            -13.7201   ZZ=             -7.0207
   XY=              0.0000   XZ=             -0.0000   YZ=              0.0000

  Exact polarizability:      14.653      -0.000      14.653       0.000       0.000      30.509
 Approx polarizability:      18.807      -0.000      18.807      -0.000      -0.000      54.216

                      1                      2                      3
                     PIG                    PIG                    PIU
 Frequencies --    616.9330               616.9330               761.4289
 Red. masses --      1.5743                 1.5743                 1.0848
 Frc consts  --      0.3530                 0.3530                 0.3706
 IR Inten    --      0.0000                 0.0000               107.9821

                      4                      5                      6
                     PIU                    SGG                    SGU
 Frequencies --    761.4289              2073.6242              3422.3569
 Red. masses --      1.0848                 3.8144                 1.0848
 Frc consts  --      0.3706                 9.6635                 7.4861
 IR Inten    --    107.9821                 0.0000                90.5935

                      7
                     SGG
 Frequencies --   3520.3979
 Red. masses --      1.2294
 Frc consts  --      8.9769
 IR Inten    --      0.0000

 - Thermochemistry -
 -------------------
 Temperature   298.150 Kelvin.  Pressure   1.00000 Atm.
 Atom     1 has atomic number  6 and mass  12.00000

 Molecular mass:    26.01565 amu.
 Principal axes and moments of inertia in atomic units:
                           1         2         3
     Eigenvalues --     0.00000  50.53126  50.53126
           X           -0.00000   0.70711   0.70711
           Y           -0.00000   0.70711  -0.70711
           Z            1.00000   0.00000   0.00000
 This molecule is a prolate symmetric top.
 Rotational symmetry number  2.
 Rotational temperature (Kelvin)      1.71407
 Rotational constant (GHZ):          35.715343
 Zero-point vibrational energy      70418.8 (Joules/Mol)
                                   16.83050 (Kcal/Mol)
 Warning -- explicit consideration of   2 degrees of freedom as
           vibrations may cause significant error
 Vibrational temperatures:    887.63   887.63  1095.53  1095.53  2983.48
          (Kelvin)           4924.01  5065.07

 Zero-point correction=                           0.026821 (Hartree/Particle)
 Thermal correction to Energy=                    0.029664
 Thermal correction to Enthalpy=                  0.030608
 Thermal correction to Gibbs Free Energy=         0.007854
 Sum of electronic and zero-point Energies=            -77.337673
 Sum of electronic and thermal Energies=               -77.334830
 Sum of electronic and thermal Enthalpies=             -77.333886
 Sum of electronic and thermal Free Energies=          -77.356641

                     E (Thermal)             CV                S
                      KCal/Mol        Cal/Mol-Kelvin    Cal/Mol-Kelvin
 Total                   18.615              8.402             47.892
 Electronic               0.000              0.000              0.000
 Translational            0.889              2.981             35.704
 Rotational               0.592              1.987             10.861
 Vibrational             17.133              3.434              1.326
 Vibration     1          0.977              0.996              0.421
 Vibration     2          0.977              0.996              0.421

 Optimization completed.
    -- Stationary point found.
 Normal termination of Gaussian 16 at Fri Jul 28 16:26:42 2023.
