 Gaussian 16, Revision C.01,
 Gaussian 16:  ES64L-G16RevC.01  3-Jul-2019

 -------------------------
 # opt freq B3LYP/def2TZVP
 -------------------------

 -------------------
 Title Card Required
 -------------------
 Symbolic Z-matrix:
 Charge =  0 Multiplicity = 1

 SCF Done:  E(RB3LYP) =  -78.6221027817     A.U. after    9 cycles
 SCF Done:  E(RB3LYP) =  -78.6236428343     A.U. after    8 cycles
 SCF Done:  E(RB3LYP) =  -78.6237511155     A.U. after    6 cycles
 SCF Done:  E(RB3LYP) =  -78.6237562921     A.U. after    6 cycles
 Optimization completed.
    -- Stationary point found.
 Normal termination of Gaussian 16 at Fri Jul 28 16:26:47 2023.

 --------------------------------------------------------------------
 #N Geom=AllCheck Guess=TCheck SCRF=Check GenChk RB3LYP/def2TZVP Freq
 --------------------------------------------------------------------

 Structure from the checkpoint file:  "/kimariyb/g16/scratch/Gau-11949.chk"
 -------------------
 Title Card Required
 -------------------
 Charge =  0 Multiplicity = 1

                         Standard orientation:
 ---------------------------------------------------------------------
 Center     Atomic      Atomic             Coordinates (Angstroms)
 Number     Number       Type             X           Y           Z
 ---------------------------------------------------------------------
      1          6           0        0.000000    0.000000    0.662348
      2          1           0        0.000000    0.921462    1.232396
      3          1           0       -0.000000   -0.921462    1.232396
      4          6           0        0.000000    0.000000   -0.662348
      5          1           0       -0.000000   -0.921462   -1.232396
      6          1           0        0.000000    0.921462   -1.232396
 ---------------------------------------------------------------------

 SCF Done:  E(RB3LYP) =  -78.6237562921     A.U. after    1 cycles

 The electronic state is 1-AG.
 Alpha  occ. eigenvalues --  -10.17334 -10.17241  -0.76624  -0.58425  -0.47485
 Alpha  occ. eigenvalues --   -0.42733  -0.36005  -0.28147
 Alpha virt. eigenvalues --   -0.00506   0.06470   0.08736   0.08896   0.14933
 Alpha virt. eigenvalues --    0.18825   0.20858   0.21596   0.21885   0.26707
 Alpha virt. eigenvalues --    0.30855   0.33893   0.41623   0.45732   0.46014

 Mulliken charges:
               1
     1  C   -0.224883
     2  H    0.112442
     3  H    0.112442
     4  C   -0.224883
     5  H    0.112442
     6  H    0.112442
 Sum of Mulliken charges =  -0.00000

 Dipole moment (field-independent basis, Debye):
    X=             -0.0000    Y=              0.0000    Z=              0.0000  Tot=              0.0000
 Quadrupole moment (field-independent basis, Debye-Ang):
   XX=            -15.7170   YY=            -12.4291   ZZ=            -12.3865
   XY=              0.0000   XZ=              0.0000   YZ=              0.0000

  Exact polarizability:      17.429       0.000      22.834      -0.000      -0.000      34.717
 Approx polarizability:      23.366       0.000      29.427      -0.000      -0.000      51.618

                      1                      2                      3
                     B2U                    B3U                    B2G
 Frequencies --    837.5999               978.9739               983.5012
 Red. masses --      1.0427                 1.1607                 1.5197
 Frc consts  --      0.4310                 0.6554                 0.8661
 IR Inten    --      0.2289               102.5782                 0.0000

                      4                      5                      6
                     AU                     B3G                    AG
 Frequencies --   1063.2250              1246.5843              1383.0728
 Red. masses --      1.0078                 1.5271                 1.2206
 Frc consts  --      0.6713                 1.3982                 1.3757
 IR Inten    --      0.0000                 0.0000                 0.0000

                      7                      8                      9
                     B1U                    AG                     B1U
 Frequencies --   1479.3651              1692.7485              3129.4883
 Red. masses --      1.1119                 3.1664                 1.0478
 Frc consts  --      1.4338                 5.3456                 6.0459
 IR Inten    --      9.3327                 0.0000                16.9538

                     10                     11                     12
                     AG                     B3G                    B2U
 Frequencies --   3142.5120              3198.4731              3226.7075
 Red. masses --      1.0721                 1.1143                 1.1177
 Frc consts  --      6.2381                 6.7162                 6.8564
 IR Inten    --      0.0000                 0.0000                21.4573

 - Thermochemistry -
 -------------------
 Temperature   298.150 Kelvin.  Pressure   1.00000 Atm.
 Atom     1 has atomic number  6 and mass  12.00000

 Molecular mass:    28.03130 amu.
 Principal axes and moments of inertia in atomic units:
                           1         2         3
     Eigenvalues --    12.22355  59.46415  71.68770
           X            0.00000   0.00000   1.00000
           Y            0.00000   1.00000  -0.00000
           Z            1.00000  -0.00000  -0.00000
 This molecule is an asymmetric top.
 Rotational symmetry number  4.
 Rotational temperatures (Kelvin)      7.08582     1.45657     1.20821
 Rotational constants (GHZ):         147.64462    30.35007    25.17505
 Zero-point vibrational energy     133756.0 (Joules/Mol)
                                   31.96844 (Kcal/Mol)
 Vibrational temperatures:   1205.12  1408.53  1415.04  1529.74  1793.56
          (Kelvin)           1989.93  2128.48  2435.49  4502.64  4521.37
                             4601.89  4642.51

 Zero-point correction=                           0.050945 (Hartree/Particle)
 Thermal correction to Energy=                    0.053983
 Thermal correction to Enthalpy=                  0.054927
 Thermal correction to Gibbs Free Energy=         0.030082
 Sum of electronic and zero-point Energies=            -78.572811
 Sum of electronic and thermal Energies=               -78.569773
 Sum of electronic and thermal Enthalpies=             -78.568829
 Sum of electronic and thermal Free Energies=          -78.593674

                     E (Thermal)             CV                S
                      KCal/Mol        Cal/Mol-Kelvin    Cal/Mol-Kelvin
 Total                   33.875              8.069             52.291
 Electronic               0.000              0.000              0.000
 Translational            0.889              2.981             35.927
 Rotational               0.889              2.981             15.840
 Vibrational             32.098              2.107              0.524

 Optimization completed.
    -- Stationary point found.
 Normal termination of Gaussian 16 at Fri Jul 28 16:26:51 2023.
