 Gaussian 16, Revision C.01,
 Gaussian 16:  ES64L-G16RevC.01  3-Jul-2019

 ---------------------
 # freq B3LYP/def2TZVP
 ---------------------

 -------------------
 Title Card Required
 -------------------
 Symbolic Z-matrix:
 Charge =  0 Multiplicity = 3

                         Standard orientation:
 ---------------------------------------------------------------------
 Center     Atomic      Atomic             Coordinates (Angstroms)
 Number     Number       Type             X           Y           Z
 ---------------------------------------------------------------------
      1          6           0        0.000000    0.000000    0.000000
 ---------------------------------------------------------------------

 SCF Done:  E(UB3LYP) =  -37.8594780751     A.U. after    8 cycles

 Unable to determine electronic state:  partially filled degenerate orbitals.
 Alpha  occ. eigenvalues --  -10.30622  -0.58913  -0.26854  -0.26854
 Alpha virt. eigenvalues --   -0.15619   0.13690   0.21541   0.21541   0.23057
 Alpha virt. eigenvalues --    0.64959   0.64959   0.65312   0.65312   0.66149
 Alpha virt. eigenvalues --    1.19357   1.34347   1.34347   1.36939   2.62919

  Beta  occ. eigenvalues --  -10.27726  -0.47974
  Beta virt. eigenvalues --   -0.12746  -0.08151  -0.08151   0.15797   0.24017
  Beta virt. eigenvalues --    0.26396   0.26396   0.68864   0.69774   0.69774
  Beta virt. eigenvalues --    0.72446   0.72446   1.25153   1.38794   1.42865

 Mulliken charges and spin densities:
               1          2
     1  C   -0.000000   2.000000
 Sum of Mulliken charges =  -0.00000   2.00000

 Dipole moment (field-independent basis, Debye):
    X=              0.0000    Y=              0.0000    Z=              0.0000  Tot=              0.0000
 Quadrupole moment (field-independent basis, Debye-Ang):
   XX=             -6.9119   YY=             -4.9298   ZZ=             -6.9119
   XY=             -0.0000   XZ=             -0.0000   YZ=              0.0000

  Exact polarizability:       9.933      -0.000       8.579       0.000      -0.000       9.933
 Approx polarizability:      10.229      -0.000      12.748      -0.000      -0.000      10.229

 - Thermochemistry -
 -------------------
 Temperature   298.150 Kelvin.  Pressure   1.00000 Atm.
 Atom     1 has atomic number  6 and mass  12.00000
 Molecular mass:    12.00000 amu.
 Zero-point vibrational energy          0.0 (Joules/Mol)
                                    0.00000 (Kcal/Mol)
 Vibrational temperatures:
          (Kelvin)

 Zero-point correction=                           0.000000 (Hartree/Particle)
 Thermal correction to Energy=                    0.001416
 Thermal correction to Enthalpy=                  0.002360
 Thermal correction to Gibbs Free Energy=        -0.014545
 Sum of electronic and zero-point Energies=            -37.859478
 Sum of electronic and thermal Energies=               -37.858062
 Sum of electronic and thermal Enthalpies=             -37.857118
 Sum of electronic and thermal Free Energies=          -37.874023

                     E (Thermal)             CV                S
                      KCal/Mol        Cal/Mol-Kelvin    Cal/Mol-Kelvin
 Total                    0.889              2.981             35.581
 Electronic               0.000              0.000              2.183
 Translational            0.889              2.981             33.398
 Rotational               0.000              0.000              0.000
 Vibrational              0.000              0.000              0.000

 Optimization completed.
    -- Stationary point found.

 1\1\GINC-LOCALHOST\Freq\UB3LYP\def2TZVP\C1(3)\KIMARIYB\28-Jul-2023\0\\
 # freq B3LYP/def2TZVP\\Title Card Required\\0,3\C,-0.60350826,-0.73787
 409,-0.01580342\\Version=ES64L-G16RevC.01\HF=-37.8594781\S2=2.003703\S
 2-1=0.\S2A=2.\RMSD=9.364e-09\RMSF=0.000e+00\Thermal=0.0014163\ETot=-37
 .8580618\HTot=-37.8571176\GTot=-37.8740233\Dipole=0.,0.,0.\DipoleDeriv
 =0.,0.,0.,0.,0.,0.,0.,0.,0.\Polar=9.9333989,0.,8.5788167,0.,0.,9.93339
 89\Quadrupole=-0.4912354,0.9824708,-0.4912354,0.,0.,0.\PG=OH [O(C1)]\N
 Imag=0\\0.,0.,0.,0.,0.,0.\\0.,0.,0.\\\@

 Normal termination of Gaussian 16 at Fri Jul 28 16:26:54 2023.
