 Gaussian 16, Revision C.01,
 Gaussian 16:  ES64L-G16RevC.01  3-Jul-2019

 -------------------------
 # opt freq B3LYP/def2TZVP
 -------------------------

 -------------------
 Title Card Required
 -------------------
 Symbolic Z-matrix:
 Charge =  0 Multiplicity = 1

 SCF Done:  E(RB3LYP) =  -40.5365657206     A.U. after    8 cycles
 SCF Done:  E(RB3LYP) =  -40.5375255803     A.U. after    8 cycles
 Optimization completed.
    -- Stationary point found.
 Normal termination of Gaussian 16 at Fri Jul 28 16:26:56 2023.

 --------------------------------------------------------------------
 #N Geom=AllCheck Guess=TCheck SCRF=Check GenChk RB3LYP/def2TZVP Freq
 --------------------------------------------------------------------

 Structure from the checkpoint file:  "/kimariyb/g16/scratch/Gau-12799.chk"
 -------------------
 Title Card Required
 -------------------
 Charge =  0 Multiplicity = 1

                         Standard orientation:
 ---------------------------------------------------------------------
 Center     Atomic      Atomic             Coordinates (Angstroms)
 Number     Number       Type             X           Y           Z
 ---------------------------------------------------------------------
      1          6           0        0.000000    0.000000    0.000000
      2          1           0        0.628740    0.628740    0.628740
      3          1           0       -0.628740   -0.628740    0.628740
      4          1           0       -0.628740    0.628740   -0.628740
      5          1           0        0.628740   -0.628740   -0.628740
 ---------------------------------------------------------------------

 SCF Done:  E(RB3LYP) =  -40.5375255803     A.U. after    1 cycles

 The electronic state is 1-A1.
 Alpha  occ. eigenvalues --  -10.15379  -0.69682  -0.39564  -0.39564  -0.39564
 Alpha virt. eigenvalues --    0.04793   0.12315   0.12315   0.12315   0.19633
 Alpha virt. eigenvalues --    0.19633   0.19633   0.39041   0.47061   0.47061
 Alpha virt. eigenvalues --    0.47061   0.52563   0.59414   0.59414   0.92826

 Mulliken charges:
               1
     1  C   -0.469677
     2  H    0.117419
     3  H    0.117419
     4  H    0.117419
     5  H    0.117419
 Sum of Mulliken charges =  -0.00000

 Dipole moment (field-independent basis, Debye):
    X=             -0.0000    Y=             -0.0000    Z=              0.0000  Tot=              0.0000
 Quadrupole moment (field-independent basis, Debye-Ang):
   XX=             -8.5004   YY=             -8.5004   ZZ=             -8.5004
   XY=              0.0000   XZ=              0.0000   YZ=              0.0000

  Exact polarizability:      15.170      -0.000      15.170      -0.000      -0.000      15.170
 Approx polarizability:      18.807       0.000      18.807      -0.000       0.000      18.807

                      1                      2                      3
                     T2                     T2                     T2
 Frequencies --   1340.4616              1340.4616              1340.4616
 Red. masses --      1.1798                 1.1798                 1.1798
 Frc consts  --      1.2491                 1.2491                 1.2491
 IR Inten    --     14.5059                14.5059                14.5059

                      4                      5                      6
                      E                      E                     A1
 Frequencies --   1556.3264              1556.3264              3033.9317
 Red. masses --      1.0078                 1.0078                 1.0078
 Frc consts  --      1.4383                 1.4383                 5.4657
 IR Inten    --      0.0000                 0.0000                 0.0000

                      7                      8                      9
                     T2                     T2                     T2
 Frequencies --   3136.6815              3136.6815              3136.6815
 Red. masses --      1.1009                 1.1009                 1.1009
 Frc consts  --      6.3818                 6.3818                 6.3818
 IR Inten    --     23.8974                23.8974                23.8974

 - Thermochemistry -
 -------------------
 Temperature   298.150 Kelvin.  Pressure   1.00000 Atm.
 Atom     1 has atomic number  6 and mass  12.00000

 Molecular mass:    16.03130 amu.
 Principal axes and moments of inertia in atomic units:
                           1         2         3
     Eigenvalues --    11.38190  11.38190  11.38190
           X            0.32901   0.00000   0.94432
           Y            0.94432   0.00000  -0.32901
           Z           -0.00000   1.00000  -0.00000
 This molecule is a spherical top.
 Rotational symmetry number 12.
 Rotational temperatures (Kelvin)      7.60980     7.60980     7.60980
 Rotational constants (GHZ):         158.56245   158.56245   158.56245
 Zero-point vibrational energy     117102.5 (Joules/Mol)
                                   27.98818 (Kcal/Mol)
 Vibrational temperatures:   1928.63  1928.63  1928.63  2239.21  2239.21
          (Kelvin)           4365.15  4512.99  4512.99  4512.99

 Zero-point correction=                           0.044602 (Hartree/Particle)
 Thermal correction to Energy=                    0.047471
 Thermal correction to Enthalpy=                  0.048415
 Thermal correction to Gibbs Free Energy=         0.027289
 Sum of electronic and zero-point Energies=            -40.492924
 Sum of electronic and thermal Energies=               -40.490055
 Sum of electronic and thermal Enthalpies=             -40.489111
 Sum of electronic and thermal Free Energies=          -40.510237

                     E (Thermal)             CV                S
                      KCal/Mol        Cal/Mol-Kelvin    Cal/Mol-Kelvin
 Total                   29.788              6.473             44.463
 Electronic               0.000              0.000              0.000
 Translational            0.889              2.981             34.261
 Rotational               0.889              2.981             10.114
 Vibrational             28.011              0.512              0.088

 Optimization completed.
    -- Stationary point found.
 Normal termination of Gaussian 16 at Fri Jul 28 16:26:59 2023.
