 Gaussian 16, Revision C.01,
 Gaussian 16:  ES64L-G16RevC.01  3-Jul-2019

 -------------------------
 # opt freq B3LYP/def2TZVP
 -------------------------

 -------------------
 Title Card Required
 -------------------
 Symbolic Z-matrix:
 Charge =  0 Multiplicity = 1

 SCF Done:  E(RB3LYP) =  -1.16042776221     A.U. after    6 cycles
 SCF Done:  E(RB3LYP) =  -1.17941866189     A.U. after    7 cycles
 SCF Done:  E(RB3LYP) =  -1.17964811917     A.U. after    4 cycles
 SCF Done:  E(RB3LYP) =  -1.17964900821     A.U. after    4 cycles
 Optimization completed.
    -- Stationary point found.
 Normal termination of Gaussian 16 at Fri Jul 28 16:27:01 2023.

 --------------------------------------------------------------------
 #N Geom=AllCheck Guess=TCheck SCRF=Check GenChk RB3LYP/def2TZVP Freq
 --------------------------------------------------------------------

 Structure from the checkpoint file:  "/kimariyb/g16/scratch/Gau-13252.chk"
 -------------------
 Title Card Required
 -------------------
 Charge =  0 Multiplicity = 1

                         Standard orientation:
 ---------------------------------------------------------------------
 Center     Atomic      Atomic             Coordinates (Angstroms)
 Number     Number       Type             X           Y           Z
 ---------------------------------------------------------------------
      1          1           0        0.000000    0.000000    0.371961
      2          1           0        0.000000    0.000000   -0.371961
 ---------------------------------------------------------------------

 SCF Done:  E(RB3LYP) =  -1.17964900821     A.U. after    1 cycles

 The electronic state is 1-SGG.
 Alpha  occ. eigenvalues --   -0.43398
 Alpha virt. eigenvalues --    0.05769   0.19801   0.47277   1.16596   1.16596
 Alpha virt. eigenvalues --    1.61545   1.94133   1.94133   2.00127   2.41927
 Alpha virt. eigenvalues --    3.42619

 Mulliken charges:
               1
     1  H    0.000000
     2  H    0.000000
 Sum of Mulliken charges =   0.00000

 Dipole moment (field-independent basis, Debye):
    X=              0.0000    Y=              0.0000    Z=              0.0000  Tot=              0.0000
 Quadrupole moment (field-independent basis, Debye-Ang):
   XX=             -2.1023   YY=             -2.1023   ZZ=             -1.5526
   XY=             -0.0000   XZ=             -0.0000   YZ=              0.0000

  Exact polarizability:       0.992       0.000       0.992       0.000       0.000       6.900
 Approx polarizability:       1.046      -0.000       1.046      -0.000      -0.000       8.203

                      1
                     SGG
 Frequencies --   4422.2012
 Red. masses --      1.0078
 Frc consts  --     11.6121
 IR Inten    --      0.0000

 - Thermochemistry -
 -------------------
 Temperature   298.150 Kelvin.  Pressure   1.00000 Atm.
 Atom     1 has atomic number  1 and mass   1.00783

 Molecular mass:     2.01565 amu.
 Principal axes and moments of inertia in atomic units:
                           1         2         3
     Eigenvalues --     0.00000   0.99588   0.99588
           X           -0.00000   1.00000  -0.00000
           Y            0.00000   0.00000   1.00000
           Z            1.00000   0.00000  -0.00000
 This molecule is a prolate symmetric top.
 Rotational symmetry number  2.
 Rotational temperature (Kelvin)     86.97206
 Rotational constant (GHZ):        1812.203594
 Zero-point vibrational energy      26450.6 (Joules/Mol)
                                    6.32185 (Kcal/Mol)
 Vibrational temperatures:   6362.56
          (Kelvin)

 Zero-point correction=                           0.010075 (Hartree/Particle)
 Thermal correction to Energy=                    0.012435
 Thermal correction to Enthalpy=                  0.013379
 Thermal correction to Gibbs Free Energy=        -0.001416
 Sum of electronic and zero-point Energies=             -1.169574
 Sum of electronic and thermal Energies=                -1.167214
 Sum of electronic and thermal Enthalpies=              -1.166270
 Sum of electronic and thermal Free Energies=           -1.181065

                     E (Thermal)             CV                S
                      KCal/Mol        Cal/Mol-Kelvin    Cal/Mol-Kelvin
 Total                    7.803              4.968             31.138
 Electronic               0.000              0.000              0.000
 Translational            0.889              2.981             28.080
 Rotational               0.592              1.987              3.058
 Vibrational              6.322              0.000              0.000

 Optimization completed.
    -- Stationary point found.
 Normal termination of Gaussian 16 at Fri Jul 28 16:27:02 2023.
