                         Program Version 5.0.4 -  RELEASE  -
|  1> ! PWPB95 D3 def2-QZVPP def2/J def2-QZVPP/C RIJCOSX tightSCF noautostart miniprint nopop
|  2> %maxcore 20000
|  3> %pal nprocs   8 end
|  4> * xyz   0   1
|  5> C     -1.05888400   -0.44421500    0.00000000
|  6> O      0.10150500   -0.44421500    0.00000000
|  7> O     -2.21927300   -0.44421500    0.00000000
|  8>  *
|  9>
| 10>                          ****END OF INPUT****

CARTESIAN COORDINATES (ANGSTROEM)
---------------------------------
  C     -1.058884   -0.444215    0.000000
  O      0.101505   -0.444215    0.000000
  O     -2.219273   -0.444215    0.000000

ORBITAL ENERGIES
----------------

  NO   OCC          E(Eh)            E(eV)
   0   2.0000     -19.755170      -537.5655
   1   2.0000     -19.755143      -537.5648
   2   2.0000     -10.773534      -293.1628
   3   2.0000      -1.300651       -35.3925
   4   2.0000      -1.254602       -34.1395
   5   2.0000      -0.657618       -17.8947
   6   2.0000      -0.608261       -16.5516
   7   2.0000      -0.598626       -16.2894
   8   2.0000      -0.598626       -16.2894
   9   2.0000      -0.442598       -12.0437
  10   2.0000      -0.442598       -12.0437
  11   0.0000       0.051439         1.3997
  12   0.0000       0.085088         2.3154
  13   0.0000       0.085088         2.3154
  14   0.0000       0.138057         3.7567
  15   0.0000       0.138057         3.7567

Total SCF time: 0 days 0 hours 0 min 14 sec

MP2 TOTAL ENERGY:     -188.581765892 Eh
Dispersion correction           -0.000309577
FINAL SINGLE POINT ENERGY      -188.582075468849

DIPOLE MOMENT
-------------
                                X             Y             Z
Electronic contribution:     -0.00000      -0.00000      -0.00000
Nuclear contribution   :      0.00000       0.00000       0.00000
                        -----------------------------------------
Total Dipole Moment    :     -0.00000      -0.00000      -0.00000
                        -----------------------------------------
Magnitude (a.u.)       :      0.00000
Magnitude (Debye)      :      0.00000

Rotational constants in cm-1:     0.000000     0.391261     0.391261
Rotational constants in MHz :     0.000000 11729.717792 11729.717792

                             ****ORCA TERMINATED NORMALLY****
TOTAL RUN TIME: 0 days 0 hours 0 minutes 18 seconds 451 msec
