                         Program Version 5.0.4 -  RELEASE  -
|  1> ! PWPB95 D3 def2-QZVPP def2/J def2-QZVPP/C RIJCOSX tightSCF noautostart miniprint nopop
|  2> %maxcore 20000
|  3> %pal nprocs   8 end
|  4> * xyz   0   1
|  5> C     -2.07692200   -0.46501400   -0.02102700
|  6> O     -0.94996400   -0.46501400   -0.02102700
|  7>  *
|  8>
|  9>                          ****END OF INPUT****

CARTESIAN COORDINATES (ANGSTROEM)
---------------------------------
  C     -2.076922   -0.465014   -0.021027
  O     -0.949964   -0.465014   -0.021027

ORBITAL ENERGIES
----------------

  NO   OCC          E(Eh)            E(eV)
   0   2.0000     -19.775221      -538.1111
   1   2.0000     -10.691854      -290.9401
   2   2.0000      -1.297639       -35.3106
   3   2.0000      -0.665067       -18.0974
   4   2.0000      -0.543087       -14.7781
   5   2.0000      -0.543087       -14.7781
   6   2.0000      -0.446632       -12.1535
   7   0.0000       0.023594         0.6420
   8   0.0000       0.023594         0.6420
   9   0.0000       0.127628         3.4729
  10   0.0000       0.160007         4.3540
  11   0.0000       0.168661         4.5895

Total SCF time: 0 days 0 hours 0 min 13 sec

MP2 TOTAL ENERGY:     -113.307708864 Eh
Dispersion correction           -0.000139535
FINAL SINGLE POINT ENERGY      -113.307848398947

DIPOLE MOMENT
-------------
                                X             Y             Z
Electronic contribution:     -0.01965       0.00000      -0.00000
Nuclear contribution   :      0.00715       0.00000       0.00000
                        -----------------------------------------
Total Dipole Moment    :     -0.01250       0.00000      -0.00000
                        -----------------------------------------
Magnitude (a.u.)       :      0.01250
Magnitude (Debye)      :      0.03178

Rotational constants in cm-1:     0.000000     1.934740     1.934740
Rotational constants in MHz :     0.000000 58002.036956 58002.036956

                             ****ORCA TERMINATED NORMALLY****
TOTAL RUN TIME: 0 days 0 hours 0 minutes 19 seconds 716 msec
