                         Program Version 5.0.4 -  RELEASE  -
|  1> ! PWPB95 D3 def2-QZVPP def2/J def2-QZVPP/C RIJCOSX tightSCF noautostart miniprint nopop
|  2> %maxcore  20000
|  3> %pal nprocs   8 end
|  4> * xyz   0   1
|  5> H     -0.28349200   -2.38636400    0.00000000
|  6> H     -1.02766500   -2.38636400    0.00000000
|  7>  *
|  8>
|  9>                          ****END OF INPUT****

CARTESIAN COORDINATES (ANGSTROEM)
---------------------------------
  H     -0.283492   -2.386364    0.000000
  H     -1.027665   -2.386364    0.000000

ORBITAL ENERGIES
----------------

  NO   OCC          E(Eh)            E(eV)
   0   2.0000      -0.490035       -13.3345
   1   0.0000       0.077628         2.1124
   2   0.0000       0.141871         3.8605
   3   0.0000       0.357535         9.7290
   4   0.0000       0.416945        11.3456
   5   0.0000       0.416945        11.3456

Total SCF time: 0 days 0 hours 0 min 5 sec

MP2 TOTAL ENERGY:       -1.170244385 Eh
Dispersion correction           -0.000018198
FINAL SINGLE POINT ENERGY        -1.170262583064

DIPOLE MOMENT
-------------
                                X             Y             Z
Electronic contribution:      0.00000      -0.00000      -0.00000
Nuclear contribution   :     -0.00000       0.00000       0.00000
                        -----------------------------------------
Total Dipole Moment    :      0.00000      -0.00000      -0.00000
                        -----------------------------------------
Magnitude (a.u.)       :      0.00000
Magnitude (Debye)      :      0.00000

Rotational constants in cm-1:     0.000000    60.397442    60.397442
Rotational constants in MHz :     0.000000 1810669.764621 1810669.764621

                             ****ORCA TERMINATED NORMALLY****
TOTAL RUN TIME: 0 days 0 hours 0 minutes 8 seconds 518 msec
