                         Program Version 5.0.4 -  RELEASE  -
|  1> ! PWPB95 D3 def2-QZVPP def2/J def2-QZVPP/C RIJCOSX tightSCF noautostart miniprint nopop
|  2> %maxcore  20000
|  3> %pal nprocs   8 end
|  4> * xyz   0   1
|  5> O     -0.96034500    0.23690300    0.00000000
|  6> H      0.00023100    0.28454200    0.00000000
|  7> H     -1.23608500    1.15828400    0.00000000
|  8>  *
|  9>
| 10>                          ****END OF INPUT****

CARTESIAN COORDINATES (ANGSTROEM)
---------------------------------
  O     -0.960345    0.236903    0.000000
  H      0.000231    0.284542    0.000000
  H     -1.236085    1.158284    0.000000

ORBITAL ENERGIES
----------------

  NO   OCC          E(Eh)            E(eV)
   0   2.0000     -19.670130      -535.2515
   1   2.0000      -1.137257       -30.9463
   2   2.0000      -0.599719       -16.3192
   3   2.0000      -0.466165       -12.6850
   4   2.0000      -0.389958       -10.6113
   5   0.0000       0.044344         1.2067
   6   0.0000       0.100605         2.7376
   7   0.0000       0.275287         7.4909
   8   0.0000       0.304819         8.2945
   9   0.0000       0.306234         8.3331

Total SCF time: 0 days 0 hours 0 min 9 sec

MP2 TOTAL ENERGY:      -76.426626940 Eh
Dispersion correction           -0.000082082
FINAL SINGLE POINT ENERGY       -76.426709022075

DIPOLE MOMENT
-------------
                                X             Y             Z
Electronic contribution:     -0.12383      -0.17529       0.00000
Nuclear contribution   :      0.57003       0.80657       0.00000
                        -----------------------------------------
Total Dipole Moment    :      0.44620       0.63129       0.00000
                        -----------------------------------------
Magnitude (a.u.)       :      0.77306
Magnitude (Debye)      :      1.96496

Rotational constants in cm-1:    26.748849    14.593863     9.442270
Rotational constants in MHz : 801910.329405 437512.998619 283072.123066

                             ****ORCA TERMINATED NORMALLY****
TOTAL RUN TIME: 0 days 0 hours 0 minutes 12 seconds 674 msec
