                         Program Version 5.0.4 -  RELEASE  -
|  1> ! PWPB95 D3 def2-QZVPP def2/J def2-QZVPP/C RIJCOSX tightSCF noautostart miniprint nopop
|  2> %maxcore  20000
|  3> %pal nprocs   8 end
|  4> * xyz   0   1
|  5> C      1.87532500   -0.07089700    0.02276300
|  6> H      2.11547300   -1.12709300    0.05646600
|  7> H      2.68707600    0.64422900    0.01941400
|  8> C      0.61484700    0.35048500   -0.02090000
|  9> H      0.36224000    1.40999000   -0.05450700
| 10> O     -0.44460400   -0.50170300   -0.03963000
| 11> C     -1.72484700    0.10944900    0.02646300
| 12> H     -1.88194200    0.79983100   -0.81044400
| 13> H     -2.45522900   -0.69559100   -0.03479000
| 14> H     -1.86273800    0.64803400    0.97094500
| 15>  *
| 16>
| 17>                          ****END OF INPUT****

CARTESIAN COORDINATES (ANGSTROEM)
---------------------------------
  C      1.875325   -0.070897    0.022763
  H      2.115473   -1.127093    0.056466
  H      2.687076    0.644229    0.019414
  C      0.614847    0.350485   -0.020900
  H      0.362240    1.409990   -0.054507
  O     -0.444604   -0.501703   -0.039630
  C     -1.724847    0.109449    0.026463
  H     -1.881942    0.799831   -0.810444
  H     -2.455229   -0.695591   -0.034790
  H     -1.862738    0.648034    0.970945

ORBITAL ENERGIES
----------------

  NO   OCC          E(Eh)            E(eV)
   0   2.0000     -19.693217      -535.8797
   1   2.0000     -10.625898      -289.1454
   2   2.0000     -10.623977      -289.0931
   3   2.0000     -10.549799      -287.0746
   4   2.0000      -1.187901       -32.3244
   5   2.0000      -0.866452       -23.5773
   6   2.0000      -0.778077       -21.1725
   7   2.0000      -0.659767       -17.9532
   8   2.0000      -0.579448       -15.7676
   9   2.0000      -0.538553       -14.6548
  10   2.0000      -0.536401       -14.5962
  11   2.0000      -0.463768       -12.6198
  12   2.0000      -0.449397       -12.2287
  13   2.0000      -0.409754       -11.1500
  14   2.0000      -0.397559       -10.8181
  15   2.0000      -0.274513        -7.4699
  16   0.0000       0.053556         1.4573
  17   0.0000       0.059746         1.6258
  18   0.0000       0.078607         2.1390
  19   0.0000       0.093583         2.5465
  20   0.0000       0.107147         2.9156

Total SCF time: 0 days 0 hours 0 min 18 sec

MP2 TOTAL ENERGY:     -193.066505222 Eh
Dispersion correction           -0.001735574
FINAL SINGLE POINT ENERGY      -193.068240796781

DIPOLE MOMENT
-------------
                                X             Y             Z
Electronic contribution:      0.59131      -1.24553      -0.12944
Nuclear contribution   :     -1.07834       1.72958       0.15155
                        -----------------------------------------
Total Dipole Moment    :     -0.48704       0.48405       0.02211
                        -----------------------------------------
Magnitude (a.u.)       :      0.68702
Magnitude (Debye)      :      1.74627

Rotational constants in cm-1:     1.341201     0.149977     0.138582
Rotational constants in MHz : 40208.183358  4496.188923  4154.570492

                             ****ORCA TERMINATED NORMALLY****
TOTAL RUN TIME: 0 days 0 hours 0 minutes 20 seconds 466 msec
