                         Program Version 5.0.4 -  RELEASE  -
|  1> ! PWPB95 D3 def2-QZVPP def2/J def2-QZVPP/C RIJCOSX tightSCF noautostart miniprint nopop
|  2> %maxcore  20000
|  3> %pal nprocs   8 end
|  4> * xyz   0   1
|  5> C      0.54828300    2.04963400   -0.04211800
|  6> H      0.37807200    2.14442900   -1.11492000
|  7> H     -0.26611700    2.53735800    0.49226100
|  8> C      0.65588200    0.59646600    0.34425000
|  9> O      1.65263900   -0.00370700   -0.36221400
| 10> C      2.02687800   -1.30971600    0.06838800
| 11> H      1.21640300   -2.01897700   -0.11718300
| 12> H      2.90293600   -1.58521300   -0.51529300
| 13> H      2.27849500   -1.31212800    1.13518500
| 14> H      0.74312800    0.42932900    1.42037800
| 15> H      1.48969300    2.55004500    0.20610900
| 16> Br    -1.18142800   -0.30667100   -0.02377000
| 17>  *
| 18>
| 19>                          ****END OF INPUT****

CARTESIAN COORDINATES (ANGSTROEM)
---------------------------------
  C      0.548283    2.049634   -0.042118
  H      0.378072    2.144429   -1.114920
  H     -0.266117    2.537358    0.492261
  C      0.655882    0.596466    0.344250
  O      1.652639   -0.003707   -0.362214
  C      2.026878   -1.309716    0.068388
  H      1.216403   -2.018977   -0.117183
  H      2.902936   -1.585213   -0.515293
  H      2.278495   -1.312128    1.135185
  H      0.743128    0.429329    1.420378
  H      1.489693    2.550045    0.206109
  Br    -1.181428   -0.306671   -0.023770

ORBITAL ENERGIES
----------------

  NO   OCC          E(Eh)            E(eV)
   0   2.0000    -485.563699    -13212.8600
   1   2.0000     -63.454660     -1726.6891
   2   2.0000     -57.103801     -1553.8734
   3   2.0000     -57.102135     -1553.8281
   4   2.0000     -57.102026     -1553.8251
   5   2.0000     -19.707549      -536.2697
   6   2.0000     -10.693815      -290.9935
   7   2.0000     -10.627513      -289.1893
   8   2.0000     -10.577609      -287.8314
   9   2.0000      -9.085556      -247.2306
  10   2.0000      -6.834964      -185.9888
  11   2.0000      -6.827344      -185.7815
  12   2.0000      -6.827121      -185.7754
  13   2.0000      -2.815013       -76.6004
  14   2.0000      -2.812653       -76.5362
  15   2.0000      -2.812450       -76.5307
  16   2.0000      -2.805073       -76.3299
  17   2.0000      -2.805050       -76.3293
  18   2.0000      -1.205924       -32.8149
  19   2.0000      -0.899785       -24.4844
  20   2.0000      -0.824792       -22.4437
  21   2.0000      -0.790919       -21.5220
  22   2.0000      -0.692544       -18.8451
  23   2.0000      -0.592933       -16.1345
  24   2.0000      -0.553158       -15.0522
  25   2.0000      -0.549736       -14.9591
  26   2.0000      -0.496698       -13.5158
  27   2.0000      -0.462108       -12.5746
  28   2.0000      -0.453726       -12.3465
  29   2.0000      -0.421988       -11.4829
  30   2.0000      -0.408900       -11.1267
  31   2.0000      -0.337792        -9.1918
  32   2.0000      -0.322679        -8.7805
  33   2.0000      -0.318260        -8.6603
  34   0.0000       0.026174         0.7122
  35   0.0000       0.052467         1.4277
  36   0.0000       0.065768         1.7896
  37   0.0000       0.086946         2.3659
  38   0.0000       0.101428         2.7600

Total SCF time: 0 days 0 hours 0 min 37 sec

MP2 TOTAL ENERGY:    -2767.937705916 Eh
Dispersion correction           -0.003632371
FINAL SINGLE POINT ENERGY     -2767.941338286088

DIPOLE MOMENT
-------------
                                X             Y             Z
Electronic contribution:    -17.88222      -5.15082      -1.12325
Nuclear contribution   :     18.80065       5.31082       1.59519
                        -----------------------------------------
Total Dipole Moment    :      0.91843       0.16000       0.47194
                        -----------------------------------------
Magnitude (a.u.)       :      1.04491
Magnitude (Debye)      :      2.65595

Rotational constants in cm-1:     0.144056     0.070841     0.049954
Rotational constants in MHz :  4318.676000  2123.747885  1497.580437

                             ****ORCA TERMINATED NORMALLY****
TOTAL RUN TIME: 0 days 0 hours 0 minutes 41 seconds 695 msec
