 Gaussian 16, Revision A.03,
 Gaussian 16:  ES64L-G16RevA.03 25-Dec-2016

 -----------------
 # CCSD(T)/cc-pVQZ
 -----------------

 ----
 test
 ----
 Symbolic Z-matrix:
 Charge =  0 Multiplicity = 2

                         Standard orientation:
 ---------------------------------------------------------------------
 Center     Atomic      Atomic             Coordinates (Angstroms)
 Number     Number       Type             X           Y           Z
 ---------------------------------------------------------------------
      1          6           0       -0.010235   -0.692137    0.000000
      2          1           0       -0.505376   -1.095913    0.882849
      3          1           0        1.008446   -1.100354    0.000000
      4          1           0       -0.505376   -1.095913   -0.882849
      5          6           0       -0.010235    0.792559   -0.000000
      6          1           0        0.062561    1.344822   -0.923232
      7          1           0        0.062561    1.344822    0.923232
 ---------------------------------------------------------------------

 SCF Done:  E(UHF) =  -78.6332548919     A.U. after   13 cycles
 E2 =    -0.3514237942D+00 EUMP2 =    -0.78984678686036D+02
 CCSD(T)= -0.79025703696D+02

 The electronic state is 2-A'.
 Alpha  occ. eigenvalues --  -11.22628 -11.21525  -1.03057  -0.84047  -0.61895
 Alpha  occ. eigenvalues --   -0.57677  -0.54292  -0.50473  -0.34929
 Alpha virt. eigenvalues --    0.12022   0.14929   0.16967   0.18941   0.21019
 Alpha virt. eigenvalues --    0.27225   0.28500   0.30094   0.32378   0.34635
 Alpha virt. eigenvalues --    0.39827   0.43080   0.48362   0.48744   0.50149

  Beta  occ. eigenvalues --  -11.21839 -11.20262  -0.99439  -0.78724  -0.60878
  Beta  occ. eigenvalues --   -0.54475  -0.53086  -0.49909
  Beta virt. eigenvalues --    0.12224   0.12762   0.15533   0.17141   0.19121
  Beta virt. eigenvalues --    0.21188   0.27578   0.28746   0.30265   0.32740
  Beta virt. eigenvalues --    0.40140   0.43211   0.45996   0.49070   0.49816

 Mulliken charges and spin densities:
               1          2
     1  C   -0.194251  -0.131448
     2  H    0.072334   0.016240
     3  H    0.067695   0.063579
     4  H    0.072334   0.016240
     5  C   -0.215820   1.205396
     6  H    0.098853  -0.085004
     7  H    0.098853  -0.085004
 Sum of Mulliken charges =  -0.00000   1.00000

 Dipole moment (field-independent basis, Debye):
    X=              0.1098    Y=             -0.1751    Z=              0.0000  Tot=              0.2067
 Quadrupole moment (field-independent basis, Debye-Ang):
   XX=            -15.2521   YY=            -14.5020   ZZ=            -13.6496
   XY=              0.1854   XZ=              0.0000   YZ=             -0.0000

 1\1\GINC-LOCALHOST\SP\UCCSD(T)-FC\CC-pVQZ\C2H5(2)\ROOT\11-May-2020\0\\
 # CCSD(T)/cc-pVQZ\\test\\0,2\C,0,-0.010235,-0.692137,0.\H,0,-0.505376,
 -1.095913,0.882849\H,0,1.008446,-1.100354,0.\H,0,-0.505376,-1.095913,-
 0.882849\C,0,-0.010235,0.792559,0.\H,0,0.062561,1.344822,-0.923232\H,0
 ,0.062561,1.344822,0.923232\\Version=ES64L-G16RevA.03\State=2-A'\HF=-7
 8.6332549\MP2=-78.9846787\MP3=-79.00999\MP4D=-79.0177913\MP4DQ=-79.009
 9068\PUHF=-78.6367501\PMP2-0=-78.9868902\PMP3-0=-79.0112446\MP4SDQ=-79
 .0120181\CCSD=-79.0124695\CCSD(T)=-79.0257037\S2=0.763313\S2-1=0.75348
 Normal termination of Gaussian 16 at Mon May 11 18:55:26 2020.
