 Gaussian 16, Revision A.03,
 Gaussian 16:  ES64L-G16RevA.03 25-Dec-2016

 ------------------
 # b2plyp def2tzvpp
 ------------------

 -------------------
 Title Card Required
 -------------------
 Symbolic Z-matrix:
 Charge =  0 Multiplicity = 1

                         Standard orientation:
 ---------------------------------------------------------------------
 Center     Atomic      Atomic             Coordinates (Angstroms)
 Number     Number       Type             X           Y           Z
 ---------------------------------------------------------------------
      1          6           0        0.000000    2.426104    0.708815
      2          6           0        0.000000    1.241200    1.402057
      3          6           0        0.000000   -0.000000    0.709186
      4          6           0        0.000000   -0.000000   -0.709186
      5          6           0        0.000000    1.241200   -1.402057
      6          6           0        0.000000    2.426104   -0.708815
      7          1           0        0.000000   -1.233064    2.501900
      8          1           0        0.000000    3.387976    1.242474
      9          1           0        0.000000    1.233064    2.501900
     10          6           0       -0.000000   -1.241200    1.402057
     11          6           0       -0.000000   -1.241200   -1.402057
     12          1           0        0.000000    1.233064   -2.501900
     13          1           0        0.000000    3.387976   -1.242474
     14          6           0       -0.000000   -2.426104   -0.708815
     15          6           0       -0.000000   -2.426104    0.708815
     16          1           0        0.000000   -1.233064   -2.501900
     17          1           0       -0.000000   -3.387976   -1.242474
     18          1           0       -0.000000   -3.387976    1.242474
 ---------------------------------------------------------------------

 SCF Done:  E(RB2PLYP) =  -385.169168264     A.U. after   15 cycles
 E2(B2PLYP) =    -0.5160641345D+00 E(B2PLYP) =    -0.38568523239825D+03

 The electronic state is 1-AG.
 Alpha  occ. eigenvalues --  -10.62999 -10.62927 -10.62393 -10.62389 -10.62373
 Alpha  occ. eigenvalues --  -10.62369 -10.62297 -10.62294 -10.62246 -10.62245
 Alpha  occ. eigenvalues --   -1.00294  -0.94298  -0.88998  -0.85389  -0.82915
 Alpha  occ. eigenvalues --   -0.72116  -0.70561  -0.68790  -0.59167  -0.58989
 Alpha  occ. eigenvalues --   -0.57276  -0.52085  -0.51434  -0.48904  -0.48681
 Alpha  occ. eigenvalues --   -0.46949  -0.45588  -0.43367  -0.40240  -0.39490
 Alpha  occ. eigenvalues --   -0.38330  -0.33246  -0.28170  -0.25268
 Alpha virt. eigenvalues --    0.00440   0.03304   0.06978   0.09066   0.10286
 Alpha virt. eigenvalues --    0.10418   0.13171   0.13632   0.14458   0.15645
 Alpha virt. eigenvalues --    0.16274   0.17472   0.18562   0.20914   0.21923

 Mulliken charges:
               1
     1  C   -0.112836
     2  C   -0.117323
     3  C    0.008614
     4  C    0.008614
     5  C   -0.117323
     6  C   -0.112836
     7  H    0.110439
     8  H    0.115413
     9  H    0.110439
    10  C   -0.117323
    11  C   -0.117323
    12  H    0.110439
    13  H    0.115413
    14  C   -0.112836
    15  C   -0.112836
    16  H    0.110439
    17  H    0.115413
    18  H    0.115413
 Sum of Mulliken charges =  -0.00000

 Dipole moment (field-independent basis, Debye):
    X=              0.0000    Y=              0.0000    Z=             -0.0000  Tot=              0.0000
 Quadrupole moment (field-independent basis, Debye-Ang):
   XX=            -64.7546   YY=            -51.8758   ZZ=            -52.0155
   XY=              0.0000   XZ=             -0.0000   YZ=              0.0000

 Normal termination of Gaussian 16 at Fri Jul 21 00:53:12 2023.
