 Gaussian 16, Revision A.03,
 Gaussian 16:  ES64L-G16RevA.03 25-Dec-2016

 -----------------------------------------
 # b2plypd3/def2tzvpp scrf=(solvent=water)
 -----------------------------------------

 -------------------
 Title Card Required
 -------------------
 Symbolic Z-matrix:
 Charge =  0 Multiplicity = 1

                         Standard orientation:
 ---------------------------------------------------------------------
 Center     Atomic      Atomic             Coordinates (Angstroms)
 Number     Number       Type             X           Y           Z
 ---------------------------------------------------------------------
      1          6           0        1.235146   -0.000002   -0.588712
      2          6           0       -0.132327    0.000003   -0.056587
      3          8           0        1.010039   -0.000043    0.834668
      4          1           0        1.658185   -0.919246   -0.986621
      5          1           0        1.658160    0.919307   -0.986506
      6          6           0       -0.931218    1.280862   -0.047475
      7          1           0       -1.560619    1.350606   -0.938956
      8          1           0       -1.585786    1.317320    0.828420
      9          1           0       -0.272869    2.150885   -0.020723
     10          6           0       -0.931260   -1.280830   -0.047500
     11          1           0       -1.585901   -1.317265    0.828354
     12          1           0       -1.560606   -1.350607   -0.939009
     13          1           0       -0.272917   -2.150855   -0.020658
 ---------------------------------------------------------------------

 SCF Done:  E(RB2PLYPD3) =  -232.030215438     A.U. after   11 cycles
 E2(B2PLYPD3) =    -0.3012576449D+00 E(B2PLYPD3) =    -0.23233147308321D+03

 The electronic state is 1-A.
 Alpha  occ. eigenvalues --  -19.73410 -10.67758 -10.66083 -10.60632 -10.60631
 Alpha  occ. eigenvalues --   -1.20674  -0.88250  -0.80427  -0.76432  -0.65155
 Alpha  occ. eigenvalues --   -0.56881  -0.54346  -0.51060  -0.48295  -0.45824
 Alpha  occ. eigenvalues --   -0.44848  -0.42473  -0.41950  -0.35289  -0.34745
 Alpha virt. eigenvalues --    0.08362   0.12405   0.12502   0.12512   0.14377
 Alpha virt. eigenvalues --    0.14832   0.15971   0.17760   0.19836   0.20103
 Alpha virt. eigenvalues --    0.20502   0.21829   0.23920   0.25958   0.27925

 Mulliken charges:
               1
     1  C    0.025137
     2  C    0.238054
     3  O   -0.471996
     4  H    0.083658
     5  H    0.083648
     6  C   -0.223979
     7  H    0.082016
     8  H    0.080605
     9  H    0.082106
    10  C   -0.223979
    11  H    0.080604
    12  H    0.082018
    13  H    0.082108
 Sum of Mulliken charges =  -0.00000

 Dipole moment (field-independent basis, Debye):
    X=             -1.3513    Y=              0.0001    Z=             -2.4627  Tot=              2.8091
 Quadrupole moment (field-independent basis, Debye-Ang):
   XX=            -31.2906   YY=            -30.4017   ZZ=            -33.3905
   XY=              0.0001   XZ=             -3.3488   YZ=              0.0001

 Normal termination of Gaussian 16 at Fri Jul 21 15:21:09 2023.
