 Gaussian 16, Revision A.03,
 Gaussian 16:  ES64L-G16RevA.03 25-Dec-2016

 -----------------------------------------
 # b2plypd3/def2tzvpp scrf=(solvent=water)
 -----------------------------------------

 ---------
 reaction1
 ---------
 Symbolic Z-matrix:
 Charge =  1 Multiplicity = 1

                         Standard orientation:
 ---------------------------------------------------------------------
 Center     Atomic      Atomic             Coordinates (Angstroms)
 Number     Number       Type             X           Y           Z
 ---------------------------------------------------------------------
      1          6           0       -0.304018   -1.019654    0.912446
      2          6           0       -0.829087    0.106891    0.142358
      3          8           0        0.266377   -0.841203   -0.451637
      4          1           0        0.420059   -0.837634    1.696531
      5          1           0       -0.860784   -1.944393    0.976217
      6          6           0       -0.339070    1.495969    0.418717
      7          1           0       -0.301096    2.082170   -0.500456
      8          1           0       -1.052811    1.973069    1.094584
      9          1           0        0.640005    1.504146    0.895625
     10          6           0       -2.109203   -0.047259   -0.617413
     11          1           0       -2.925497    0.315876    0.012091
     12          1           0       -2.091439    0.549645   -1.530070
     13          1           0       -2.305313   -1.089152   -0.868008
     14          1           0        1.227595   -0.436377   -0.407973
     15          8           0        2.562568    0.143284   -0.231980
     16          1           0        3.273477   -0.495474   -0.100822
     17          1           0        2.832500    0.745797   -0.935433
 ---------------------------------------------------------------------

 SCF Done:  E(RB2PLYPD3) =  -308.797810993     A.U. after   11 cycles
 E2(B2PLYPD3) =    -0.3848716304D+00 E(B2PLYPD3) =    -0.30918268262327D+03

 The electronic state is 1-A.
 Alpha  occ. eigenvalues --  -19.83808 -19.78578 -10.74230 -10.72001 -10.63542
 Alpha  occ. eigenvalues --  -10.63310  -1.28660  -1.21067  -0.95245  -0.85149
 Alpha  occ. eigenvalues --   -0.83759  -0.71579  -0.66668  -0.66074  -0.59613
 Alpha  occ. eigenvalues --   -0.56417  -0.55209  -0.53209  -0.49666  -0.48602
 Alpha  occ. eigenvalues --   -0.47787  -0.47022  -0.45478  -0.44831  -0.42254
 Alpha virt. eigenvalues --    0.04609   0.07233   0.08259   0.09125   0.11145
 Alpha virt. eigenvalues --    0.12613   0.12940   0.14254   0.14301   0.15611
 Alpha virt. eigenvalues --    0.16047   0.18906   0.19414   0.20099   0.22323

 Mulliken charges:
               1
     1  C    0.033195
     2  C    0.206781
     3  O   -0.240270
     4  H    0.151721
     5  H    0.139587
     6  C   -0.192126
     7  H    0.112322
     8  H    0.117287
     9  H    0.098209
    10  C   -0.205985
    11  H    0.111873
    12  H    0.103096
    13  H    0.103194
    14  H    0.295768
    15  O   -0.387590
    16  H    0.274201
    17  H    0.278739
 Sum of Mulliken charges =   1.00000

 Dipole moment (field-independent basis, Debye):
    X=              3.0107    Y=             -0.2684    Z=              0.4524  Tot=              3.0563
 Quadrupole moment (field-independent basis, Debye-Ang):
   XX=            -12.6968   YY=            -30.7405   ZZ=            -32.5067
   XY=             -0.6180   XZ=             -4.1693   YZ=             -3.8448

 Normal termination of Gaussian 16 at Fri Jul 21 15:23:16 2023.
