 Gaussian 16, Revision A.03,
 Gaussian 16:  ES64L-G16RevA.03 25-Dec-2016

 -----------------------------------------------------
 # opt freq b3lyp/6-311g* em=gd3bj scrf(solvent=water)
 -----------------------------------------------------

 -------------------
 Title Card Required
 -------------------
 Symbolic Z-matrix:
 Charge =  1 Multiplicity = 1

 SCF Done:  E(RB3LYP) =  -76.8381315168     A.U. after    7 cycles
 SCF Done:  E(RB3LYP) =  -76.8399025407     A.U. after    7 cycles
 SCF Done:  E(RB3LYP) =  -76.8408201897     A.U. after    8 cycles
 SCF Done:  E(RB3LYP) =  -76.8409185297     A.U. after    7 cycles
 SCF Done:  E(RB3LYP) =  -76.8409376682     A.U. after    7 cycles
 SCF Done:  E(RB3LYP) =  -76.8409430484     A.U. after    7 cycles
 Optimization completed.
    -- Stationary point found.
 Normal termination of Gaussian 16 at Fri Jul 21 15:14:40 2023.

 ---------------------------------------------------------------------
 #N Geom=AllCheck Guess=TCheck SCRF=Check GenChk RB3LYP/6-311G(d) Freq
 ---------------------------------------------------------------------

 Structure from the checkpoint file:  "/home/kimariyb/g16/scratch/Gau-166641.chk"
 -------------------
 Title Card Required
 -------------------
 Charge =  1 Multiplicity = 1

                         Standard orientation:
 ---------------------------------------------------------------------
 Center     Atomic      Atomic             Coordinates (Angstroms)
 Number     Number       Type             X           Y           Z
 ---------------------------------------------------------------------
      1          8           0        0.000000    0.078609    0.000000
      2          1           0       -0.931863   -0.208177    0.000000
      3          1           0        0.465931   -0.210348   -0.806457
      4          1           0        0.465931   -0.210348    0.806457
 ---------------------------------------------------------------------

 SCF Done:  E(RB3LYP) =  -76.8409430484     A.U. after    1 cycles

 The electronic state is 1-A'.
 Alpha  occ. eigenvalues --  -19.31858  -1.22104  -0.70591  -0.70562  -0.50907
 Alpha virt. eigenvalues --   -0.03892   0.05611   0.05620   0.28461   0.28491
 Alpha virt. eigenvalues --    0.34672   0.62238   0.74945   0.74948   1.09316
 Alpha virt. eigenvalues --    1.90783   1.90814   1.95346   2.54852   2.54868

 Mulliken charges:
               1
     1  O   -0.711888
     2  H    0.570683
     3  H    0.570603
     4  H    0.570603
 Sum of Mulliken charges =   1.00000

 Dipole moment (field-independent basis, Debye):
    X=             -0.0008    Y=             -1.8643    Z=             -0.0000  Tot=              1.8643
 Quadrupole moment (field-independent basis, Debye-Ang):
   XX=             -2.5459   YY=             -6.3012   ZZ=             -2.5519
   XY=             -0.0064   XZ=             -0.0000   YZ=              0.0000

  Exact polarizability:   6.046  -0.005   3.382   0.000  -0.000   6.043
 Approx polarizability:   6.599  -0.006   3.506  -0.000   0.000   6.595

                      1                      2                      3
                     A'                     A'                     A"
 Frequencies --    940.1459              1774.0306              1779.9774
 Red. masses --      1.1693                 1.0663                 1.0669
 Frc consts  --      0.6090                 1.9772                 1.9916
 IR Inten    --    631.0198               151.4960               153.4605

                      4                      5                      6
                     A'                     A'                     A"
 Frequencies --   3635.5390              3718.0516              3720.1626
 Red. masses --      1.0190                 1.0876                 1.0871
 Frc consts  --      7.9350                 8.8586                 8.8644
 IR Inten    --     53.0937               445.1774               446.0152

 - Thermochemistry -
 -------------------
 Temperature   298.150 Kelvin.  Pressure   1.00000 Atm.
 Atom     1 has atomic number  8 and mass  15.99491

 Molecular mass:    19.01839 amu.
 Principal axes and moments of inertia in atomic units:
                           1         2         3
     Eigenvalues --     5.43579   5.44230   9.36931
           X            1.00000   0.00000   0.00185
           Y           -0.00185  -0.00000   1.00000
           Z           -0.00000   1.00000  -0.00000
 This molecule is an asymmetric top.
 Rotational symmetry number  1.
 Rotational temperatures (Kelvin)     15.93399    15.91493     9.24443
 Rotational constants (GHZ):         332.01056   331.61342   192.62269
 Zero-point vibrational energy      93116.8 (Joules/Mol)
                                   22.25544 (Kcal/Mol)
 Vibrational temperatures:   1352.66  2552.43  2560.99  5230.73  5349.45
          (Kelvin)           5352.48

 Zero-point correction=                           0.035466 (Hartree/Particle)
 Thermal correction to Energy=                    0.038348
 Thermal correction to Enthalpy=                  0.039292
 Thermal correction to Gibbs Free Energy=         0.016349
 Sum of electronic and zero-point Energies=            -76.805477
 Sum of electronic and thermal Energies=               -76.802595
 Sum of electronic and thermal Enthalpies=             -76.801651
 Sum of electronic and thermal Free Energies=          -76.824594

                     E (Thermal)             CV                S
                      KCal/Mol        Cal/Mol-Kelvin    Cal/Mol-Kelvin
 Total                   24.064              6.464             48.288
 Electronic               0.000              0.000              0.000
 Translational            0.889              2.981             34.771
 Rotational               0.889              2.981             13.392
 Vibrational             22.286              0.503              0.126

 Optimization completed.
    -- Stationary point found.
 Normal termination of Gaussian 16 at Fri Jul 21 15:14:43 2023.
