 Gaussian 16, Revision A.03,
 Gaussian 16:  ES64L-G16RevA.03 25-Dec-2016

 ------------------------------------------------------
 # b3lyp/6-311g* opt freq scrf=(solvent=water) em=gd3bj
 ------------------------------------------------------

 ---------
 reaction1
 ---------
 Symbolic Z-matrix:
 Charge =  1 Multiplicity = 1

 SCF Done:  E(RB3LYP) =  -309.383015434     A.U. after   12 cycles
 SCF Done:  E(RB3LYP) =  -309.383051664     A.U. after    9 cycles
 SCF Done:  E(RB3LYP) =  -309.380640239     A.U. after   11 cycles
 SCF Done:  E(RB3LYP) =  -309.382978092     A.U. after   10 cycles
 SCF Done:  E(RB3LYP) =  -309.383160852     A.U. after    7 cycles
 SCF Done:  E(RB3LYP) =  -309.383291317     A.U. after    9 cycles
 SCF Done:  E(RB3LYP) =  -309.383322913     A.U. after    8 cycles
 SCF Done:  E(RB3LYP) =  -309.383338883     A.U. after    8 cycles
 SCF Done:  E(RB3LYP) =  -309.383342451     A.U. after    8 cycles
 Optimization completed.
    -- Stationary point found.
 Normal termination of Gaussian 16 at Fri Jul 21 15:10:26 2023.

 ---------------------------------------------------------------------
 #N Geom=AllCheck Guess=TCheck SCRF=Check GenChk RB3LYP/6-311G(d) Freq
 ---------------------------------------------------------------------

 Structure from the checkpoint file:  "/home/kimariyb/g16/scratch/Gau-165235.chk"
 ---------
 reaction1
 ---------
 Charge =  1 Multiplicity = 1

                         Standard orientation:
 ---------------------------------------------------------------------
 Center     Atomic      Atomic             Coordinates (Angstroms)
 Number     Number       Type             X           Y           Z
 ---------------------------------------------------------------------
      1          6           0       -0.304018   -1.019654    0.912446
      2          6           0       -0.829087    0.106891    0.142358
      3          8           0        0.266377   -0.841203   -0.451637
      4          1           0        0.420059   -0.837634    1.696531
      5          1           0       -0.860784   -1.944393    0.976217
      6          6           0       -0.339070    1.495969    0.418717
      7          1           0       -0.301096    2.082170   -0.500456
      8          1           0       -1.052811    1.973069    1.094584
      9          1           0        0.640005    1.504146    0.895625
     10          6           0       -2.109203   -0.047259   -0.617413
     11          1           0       -2.925497    0.315876    0.012091
     12          1           0       -2.091439    0.549645   -1.530070
     13          1           0       -2.305313   -1.089152   -0.868008
     14          1           0        1.227595   -0.436377   -0.407973
     15          8           0        2.562568    0.143284   -0.231980
     16          1           0        3.273477   -0.495474   -0.100822
     17          1           0        2.832500    0.745797   -0.935433
 ---------------------------------------------------------------------

 SCF Done:  E(RB3LYP) =  -309.383342451     A.U. after    1 cycles

 The electronic state is 1-A.
 Alpha  occ. eigenvalues --  -19.23546 -19.18037 -10.29602 -10.27451 -10.19313
 Alpha  occ. eigenvalues --  -10.19089  -1.15018  -1.07485  -0.84102  -0.75293
 Alpha  occ. eigenvalues --   -0.73588  -0.63396  -0.59440  -0.57910  -0.52586
 Alpha  occ. eigenvalues --   -0.49321  -0.48601  -0.46415  -0.42653  -0.42465
 Alpha  occ. eigenvalues --   -0.41312  -0.40992  -0.39341  -0.37298  -0.36594
 Alpha virt. eigenvalues --   -0.00167   0.01054   0.02738   0.04615   0.06888
 Alpha virt. eigenvalues --    0.08432   0.08983   0.09906   0.10140   0.11259
 Alpha virt. eigenvalues --    0.13794   0.14465   0.15148   0.19709   0.23042

 Mulliken charges:
               1
     1  C   -0.236129
     2  C    0.111296
     3  O   -0.414221
     4  H    0.297170
     5  H    0.295332
     6  C   -0.620951
     7  H    0.255791
     8  H    0.265196
     9  H    0.245338
    10  C   -0.596449
    11  H    0.260986
    12  H    0.251329
    13  H    0.245026
    14  H    0.507277
    15  O   -0.836006
    16  H    0.484069
    17  H    0.484944
 Sum of Mulliken charges =   1.00000

 Dipole moment (field-independent basis, Debye):
    X=              3.4318    Y=             -0.2870    Z=              0.2424  Tot=              3.4523
 Quadrupole moment (field-independent basis, Debye-Ang):
   XX=            -11.7973   YY=            -31.1047   ZZ=            -32.7499
   XY=             -0.8001   XZ=             -4.6531   YZ=             -3.8820

  Exact polarizability:  69.459  -1.542  65.089   1.697  -4.078  57.062
 Approx polarizability:  72.357  -3.335  69.716  -1.241  -2.997  65.170

                      1                      2                      3
                      A                      A                      A
 Frequencies --     79.7350               120.1967               166.8473
 Red. masses --      3.1707                 3.5434                 1.0303
 Frc consts  --      0.0119                 0.0302                 0.0169
 IR Inten    --      2.8806                 5.1530                75.4777

                      4                      5                      6
                      A                      A                      A
 Frequencies --    184.4363               226.9340               264.1517
 Red. masses --      1.0432                 1.1043                 3.7010
 Frc consts  --      0.0209                 0.0335                 0.1521
 IR Inten    --      6.3633                 6.0918                57.8449

                      7                      8                      9
                      A                      A                      A
 Frequencies --    361.0477               382.0591               409.0922
 Red. masses --      2.3762                 1.9565                 1.8319
 Frc consts  --      0.1825                 0.1683                 0.1806
 IR Inten    --     45.3043                72.2159                88.5161

                     10                     11                     12
                      A                      A                      A
 Frequencies --    423.8367               437.6666               519.1956
 Red. masses --      1.7298                 2.4336                 2.2193
 Frc consts  --      0.1831                 0.2746                 0.3525
 IR Inten    --    113.7429               156.9015                54.9004

                     13                     14                     15
                      A                      A                      A
 Frequencies --    543.8814               753.0671               876.6943
 Red. masses --      1.7099                 3.9006                 4.8520
 Frc consts  --      0.2980                 1.3033                 2.1972
 IR Inten    --     17.3055                63.7681                38.1437

                     16                     17                     18
                      A                      A                      A
 Frequencies --    929.3698               985.9999              1038.1667
 Red. masses --      1.4057                 1.2005                 1.3189
 Frc consts  --      0.7154                 0.6876                 0.8375
 IR Inten    --      0.6736                 0.4305                 1.9174

                     19                     20                     21
                      A                      A                      A
 Frequencies --   1072.0079              1110.9502              1119.2766
 Red. masses --      1.5963                 1.1995                 1.6484
 Frc consts  --      1.0809                 0.8722                 1.2167
 IR Inten    --     11.3851                11.9929                89.5089

                     22                     23                     24
                      A                      A                      A
 Frequencies --   1223.7429              1287.2909              1381.6548
 Red. masses --      1.2739                 1.7742                 1.7859
 Frc consts  --      1.1240                 1.7323                 2.0087
 IR Inten    --      6.3509                47.4036                16.7366

                     25                     26                     27
                      A                      A                      A
 Frequencies --   1407.6074              1430.6363              1435.8333
 Red. masses --      1.4112                 1.3695                 1.2078
 Frc consts  --      1.6474                 1.6515                 1.4671
 IR Inten    --    136.7124                72.9242                15.7180

                     28                     29                     30
                      A                      A                      A
 Frequencies --   1462.9730              1484.3792              1492.2828
 Red. masses --      1.1033                 1.1243                 1.0468
 Frc consts  --      1.3912                 1.4596                 1.3734
 IR Inten    --     76.3839                10.2591                 7.5901

                     31                     32                     33
                      A                      A                      A
 Frequencies --   1501.5961              1517.2298              1530.1720
 Red. masses --      1.0531                 1.0935                 1.3429
 Frc consts  --      1.3990                 1.4831                 1.8526
 IR Inten    --     21.3472                13.0126                23.2847

                     34                     35                     36
                      A                      A                      A
 Frequencies --   1715.1686              2354.8082              3057.1074
 Red. masses --      1.0847                 1.0870                 1.0364
 Frc consts  --      1.8801                 3.5512                 5.7067
 IR Inten    --     55.4374              3284.9514                 2.9413

                     37                     38                     39
                      A                      A                      A
 Frequencies --   3061.8055              3122.2690              3126.4425
 Red. masses --      1.0370                 1.1012                 1.1008
 Frc consts  --      5.7277                 6.3251                 6.3394
 IR Inten    --      4.4648                 2.5966                17.5047

                     40                     41                     42
                      A                      A                      A
 Frequencies --   3146.3803              3149.3436              3163.6699
 Red. masses --      1.1049                 1.1043                 1.0550
 Frc consts  --      6.4448                 6.4532                 6.2213
 IR Inten    --     15.3890                10.4624                 3.9775

                     43                     44                     45
                      A                      A                      A
 Frequencies --   3268.3948              3777.3253              3868.8638
 Red. masses --      1.1234                 1.0427                 1.0844
 Frc consts  --      7.0708                 8.7658                 9.5636
 IR Inten    --      0.6760                56.5567               160.5728

 - Thermochemistry -
 -------------------
 Temperature   298.150 Kelvin.  Pressure   1.00000 Atm.
 Atom     1 has atomic number  6 and mass  12.00000

 Molecular mass:    91.07590 amu.
 Principal axes and moments of inertia in atomic units:
                           1         2         3
     Eigenvalues --   357.49294 867.491521001.45317
           X            0.99998  -0.00014   0.00618
           Y            0.00034   0.99949  -0.03191
           Z           -0.00617   0.03191   0.99947
 This molecule is an asymmetric top.
 Rotational symmetry number  1.
 Rotational temperatures (Kelvin)      0.24228     0.09984     0.08649
 Rotational constants (GHZ):           5.04833     2.08041     1.80212
 Zero-point vibrational energy     394597.7 (Joules/Mol)
                                   94.31112 (Kcal/Mol)
 Warning -- explicit consideration of  13 degrees of freedom as
           vibrations may cause significant error
 Vibrational temperatures:    114.72   172.94   240.06   265.36   326.51
          (Kelvin)            380.06   519.47   549.70   588.59   609.81
                              629.70   747.01   782.52  1083.50  1261.37
                             1337.16  1418.63  1493.69  1542.38  1598.41
                             1610.39  1760.69  1852.12  1987.89  2025.23
                             2058.37  2065.84  2104.89  2135.69  2147.06
                             2160.46  2182.96  2201.58  2467.75  3388.04
                             4398.50  4405.26  4492.25  4498.25  4526.94
                             4531.20  4551.82  4702.49  5434.73  5566.43

 Zero-point correction=                           0.150294 (Hartree/Particle)
 Thermal correction to Energy=                    0.159160
 Thermal correction to Enthalpy=                  0.160104
 Thermal correction to Gibbs Free Energy=         0.117807
 Sum of electronic and zero-point Energies=           -309.233048
 Sum of electronic and thermal Energies=              -309.224183
 Sum of electronic and thermal Enthalpies=            -309.223238
 Sum of electronic and thermal Free Energies=         -309.265535

                     E (Thermal)             CV                S
                      KCal/Mol        Cal/Mol-Kelvin    Cal/Mol-Kelvin
 Total                   99.874             31.354             89.020
 Electronic               0.000              0.000              0.000
 Translational            0.889              2.981             39.439
 Rotational               0.889              2.981             27.232
 Vibrational             98.097             25.392             22.349
 Vibration     1          0.600              1.963              3.897
 Vibration     2          0.609              1.932              3.097
 Vibration     3          0.624              1.883              2.471
 Vibration     4          0.631              1.861              2.283
 Vibration     5          0.651              1.800              1.903
 Vibration     6          0.671              1.739              1.634
 Vibration     7          0.735              1.553              1.118
 Vibration     8          0.752              1.508              1.031
 Vibration     9          0.773              1.450              0.930
 Vibration    10          0.786              1.418              0.879
 Vibration    11          0.798              1.388              0.834
 Vibration    12          0.874              1.207              0.612
 Vibration    13          0.899              1.153              0.557

                           ! Non-Optimized Parameters !
 Normal termination of Gaussian 16 at Fri Jul 21 15:11:05 2023.
