 Gaussian 16, Revision A.03,
 Gaussian 16:  ES64L-G16RevA.03 25-Dec-2016

 -----------------------------------------------------
 # b3lyp/6-311g* opt freq em=gd3bj scrf(solvent=water)
 -----------------------------------------------------

 -------------------
 Title Card Required
 -------------------
 Symbolic Z-matrix:
 Charge =  0 Multiplicity = 1

 SCF Done:  E(RB3LYP) =  -232.497323109     A.U. after   11 cycles
 SCF Done:  E(RB3LYP) =  -232.501107164     A.U. after   10 cycles
 SCF Done:  E(RB3LYP) =  -232.501351975     A.U. after    9 cycles
 SCF Done:  E(RB3LYP) =  -232.501372847     A.U. after    9 cycles
 SCF Done:  E(RB3LYP) =  -232.501376377     A.U. after    7 cycles
 SCF Done:  E(RB3LYP) =  -232.501376960     A.U. after    7 cycles
 Optimization completed.
    -- Stationary point found.
 Normal termination of Gaussian 16 at Fri Jul 21 15:05:19 2023.

 ---------------------------------------------------------------------
 #N Geom=AllCheck Guess=TCheck SCRF=Check GenChk RB3LYP/6-311G(d) Freq
 ---------------------------------------------------------------------

 Structure from the checkpoint file:  "/home/kimariyb/g16/scratch/Gau-163026.chk"
 -------------------
 Title Card Required
 -------------------
 Charge =  0 Multiplicity = 1

                         Standard orientation:
 ---------------------------------------------------------------------
 Center     Atomic      Atomic             Coordinates (Angstroms)
 Number     Number       Type             X           Y           Z
 ---------------------------------------------------------------------
      1          6           0       -1.235146    0.000003   -0.588712
      2          6           0        0.132327   -0.000003   -0.056587
      3          8           0       -1.010039    0.000044    0.834668
      4          1           0       -1.658184    0.919247   -0.986621
      5          1           0       -1.658161   -0.919306   -0.986506
      6          6           0        0.931217   -1.280863   -0.047475
      7          1           0        1.560618   -1.350607   -0.938956
      8          1           0        1.585785   -1.317321    0.828420
      9          1           0        0.272867   -2.150885   -0.020723
     10          6           0        0.931261    1.280829   -0.047500
     11          1           0        1.585902    1.317264    0.828354
     12          1           0        1.560607    1.350606   -0.939009
     13          1           0        0.272919    2.150855   -0.020658
 ---------------------------------------------------------------------

 SCF Done:  E(RB3LYP) =  -232.501376960     A.U. after    1 cycles

 The electronic state is 1-A.
 Alpha  occ. eigenvalues --  -19.12379 -10.23174 -10.21474 -10.16339 -10.16337
 Alpha  occ. eigenvalues --   -1.06745  -0.77112  -0.70248  -0.66215  -0.56506
 Alpha  occ. eigenvalues --   -0.49290  -0.47322  -0.44445  -0.41740  -0.39683
 Alpha  occ. eigenvalues --   -0.38714  -0.36437  -0.36099  -0.29838  -0.27219
 Alpha virt. eigenvalues --    0.04645   0.08119   0.08138   0.08686   0.11016
 Alpha virt. eigenvalues --    0.11325   0.11466   0.14590   0.14922   0.16326
 Alpha virt. eigenvalues --    0.17992   0.25282   0.25749   0.29840   0.30036

 Mulliken charges:
               1
     1  C   -0.289556
     2  C    0.153053
     3  O   -0.367391
     4  H    0.217527
     5  H    0.217522
     6  C   -0.620567
     7  H    0.221016
     8  H    0.217075
     9  H    0.216899
    10  C   -0.620567
    11  H    0.217073
    12  H    0.221019
    13  H    0.216897
 Sum of Mulliken charges =  -0.00000

 Dipole moment (field-independent basis, Debye):
    X=              1.2172    Y=             -0.0001    Z=             -2.2645  Tot=              2.5709
 Quadrupole moment (field-independent basis, Debye-Ang):
   XX=            -31.3509   YY=            -30.5495   ZZ=            -33.2265
   XY=              0.0001   XZ=              3.0962   YZ=             -0.0001

  Exact polarizability:  65.509   0.000  57.368   4.887   0.000  52.476
 Approx polarizability:  69.609  -0.000  58.098   2.621   0.000  62.474

                      1                      2                      3
                      A                      A                      A
 Frequencies --    175.8488               218.6037               359.2057
 Red. masses --      1.0426                 1.0707                 2.2962
 Frc consts  --      0.0190                 0.0301                 0.1746
 IR Inten    --      0.1803                 0.6587                 0.8041

                      4                      5                      6
                      A                      A                      A
 Frequencies --    365.4071               408.6590               412.9749
 Red. masses --      2.4272                 2.2972                 2.6861
 Frc consts  --      0.1909                 0.2260                 0.2699
 IR Inten    --      7.6166                 9.3959                 8.1224

                      7                      8                      9
                      A                      A                      A
 Frequencies --    694.0047               799.7194               915.4265
 Red. masses --      4.7268                 3.7413                 1.3512
 Frc consts  --      1.3414                 1.4098                 0.6671
 IR Inten    --      9.8801                60.3278                 0.0136

                     10                     11                     12
                      A                      A                      A
 Frequencies --    917.5828               965.8018              1026.0104
 Red. masses --      3.8476                 1.2574                 1.2671
 Frc consts  --      1.9087                 0.6910                 0.7859
 IR Inten    --     32.4716                 0.2382                 0.0453

                     13                     14                     15
                      A                      A                      A
 Frequencies --   1072.8075              1137.6570              1145.9295
 Red. masses --      1.6667                 1.2863                 1.8306
 Frc consts  --      1.1302                 0.9808                 1.4164
 IR Inten    --     10.2045                 5.0866                30.3359

                     16                     17                     18
                      A                      A                      A
 Frequencies --   1167.7163              1291.2907              1397.5720
 Red. masses --      1.3865                 2.5838                 2.0987
 Frc consts  --      1.1139                 2.5384                 2.4152
 IR Inten    --      0.1433                19.7218                30.0603

                     19                     20                     21
                      A                      A                      A
 Frequencies --   1421.4613              1429.3438              1483.4020
 Red. masses --      1.4023                 1.3449                 1.0456
 Frc consts  --      1.6694                 1.6188                 1.3556
 IR Inten    --     30.4676                12.3299                 0.6126

                     22                     23                     24
                      A                      A                      A
 Frequencies --   1494.9548              1503.3703              1511.8273
 Red. masses --      1.0487                 1.0528                 1.0671
 Frc consts  --      1.3809                 1.4019                 1.4370
 IR Inten    --      2.7026                15.5319                 6.4807

                     25                     26                     27
                      A                      A                      A
 Frequencies --   1542.0278              3030.5940              3036.3898
 Red. masses --      1.3970                 1.0366                 1.0372
 Frc consts  --      1.9572                 5.6094                 5.6340
 IR Inten    --      6.3404                27.5167                43.7605

                     28                     29                     30
                      A                      A                      A
 Frequencies --   3087.9346              3088.0469              3092.5958
 Red. masses --      1.0509                 1.1018                 1.1008
 Frc consts  --      5.9043                 6.1902                 6.2032
 IR Inten    --     51.7207                 0.6696                81.1654

                     31                     32                     33
                      A                      A                      A
 Frequencies --   3112.9610              3114.4117              3174.3763
 Red. masses --      1.1023                 1.1021                 1.1212
 Frc consts  --      6.2937                 6.2981                 6.6564
 IR Inten    --     29.2701                57.1537                48.9870

 - Thermochemistry -
 -------------------
 Temperature   298.150 Kelvin.  Pressure   1.00000 Atm.
 Atom     1 has atomic number  6 and mass  12.00000

 Molecular mass:    72.05751 amu.
 Principal axes and moments of inertia in atomic units:
                           1         2         3
     Eigenvalues --   278.07696 327.10617 460.24692
           X            0.99846   0.00002   0.05541
           Y           -0.00002   1.00000  -0.00000
           Z           -0.05541   0.00000   0.99846
 This molecule is an asymmetric top.
 Rotational symmetry number  1.
 Rotational temperatures (Kelvin)      0.31147     0.26479     0.18819
 Rotational constants (GHZ):           6.49008     5.51729     3.92125
 Zero-point vibrational energy     296649.5 (Joules/Mol)
                                   70.90092 (Kcal/Mol)
 Warning -- explicit consideration of   6 degrees of freedom as
           vibrations may cause significant error
 Vibrational temperatures:    253.01   314.52   516.82   525.74   587.97
          (Kelvin)            594.18   998.52  1150.62  1317.09  1320.20
                             1389.57  1476.20  1543.53  1636.83  1648.74
                             1680.08  1857.88  2010.79  2045.17  2056.51
                             2134.28  2150.91  2163.01  2175.18  2218.63
                             4360.35  4368.69  4442.85  4443.01  4449.56
                             4478.86  4480.94  4567.22

 Zero-point correction=                           0.112988 (Hartree/Particle)
 Thermal correction to Energy=                    0.118762
 Thermal correction to Enthalpy=                  0.119706
 Thermal correction to Gibbs Free Energy=         0.084675
 Sum of electronic and zero-point Energies=           -232.388389
 Sum of electronic and thermal Energies=              -232.382615
 Sum of electronic and thermal Enthalpies=            -232.381671
 Sum of electronic and thermal Free Energies=         -232.416702

                     E (Thermal)             CV                S
                      KCal/Mol        Cal/Mol-Kelvin    Cal/Mol-Kelvin
 Total                   74.524             20.697             73.728
 Electronic               0.000              0.000              0.000
 Translational            0.889              2.981             38.741
 Rotational               0.889              2.981             25.241
 Vibrational             72.747             14.735              9.747
 Vibration     1          0.628              1.872              2.372
 Vibration     2          0.646              1.813              1.971
 Vibration     3          0.734              1.556              1.126
 Vibration     4          0.739              1.543              1.099
 Vibration     5          0.773              1.451              0.931
 Vibration     6          0.777              1.442              0.916

 Optimization completed.
    -- Stationary point found.
 Normal termination of Gaussian 16 at Fri Jul 21 15:05:43 2023.
