 Gaussian 16, Revision A.03,
 Gaussian 16:  ES64L-G16RevA.03 25-Dec-2016

 ------------------------
 # opt freq b3lyp/6-311g*
 ------------------------

 -------------------
 Title Card Required
 -------------------
 Symbolic Z-matrix:
 Charge =  0 Multiplicity = 1

 SCF Done:  E(RB3LYP) =  -2767.90447316     A.U. after   13 cycles
 SCF Done:  E(RB3LYP) =  -2767.93632210     A.U. after   13 cycles
 SCF Done:  E(RB3LYP) =  -2767.94368065     A.U. after   12 cycles
 SCF Done:  E(RB3LYP) =  -2767.94481587     A.U. after   11 cycles
 SCF Done:  E(RB3LYP) =  -2767.94542338     A.U. after   11 cycles
 SCF Done:  E(RB3LYP) =  -2767.94589061     A.U. after   10 cycles
 SCF Done:  E(RB3LYP) =  -2767.94634632     A.U. after   11 cycles
 SCF Done:  E(RB3LYP) =  -2767.94665138     A.U. after   11 cycles
 SCF Done:  E(RB3LYP) =  -2767.94684478     A.U. after   10 cycles
 SCF Done:  E(RB3LYP) =  -2767.94688271     A.U. after    9 cycles
 SCF Done:  E(RB3LYP) =  -2767.94689706     A.U. after    9 cycles
 SCF Done:  E(RB3LYP) =  -2767.94690084     A.U. after    8 cycles
 Optimization completed.
    -- Stationary point found.
 Normal termination of Gaussian 16 at Thu Jul 13 12:33:01 2023.

 ---------------------------------------------------------------------
 #N Geom=AllCheck Guess=TCheck SCRF=Check GenChk RB3LYP/6-311G(d) Freq
 ---------------------------------------------------------------------

 Structure from the checkpoint file:  "/home/kimariyb/g16/scratch/Gau-148907.chk"
 -------------------
 Title Card Required
 -------------------
 Charge =  0 Multiplicity = 1

                         Standard orientation:
 ---------------------------------------------------------------------
 Center     Atomic      Atomic             Coordinates (Angstroms)
 Number     Number       Type             X           Y           Z
 ---------------------------------------------------------------------
      1          6           0        0.548283    2.049634   -0.042118
      2          1           0        0.378072    2.144429   -1.114920
      3          1           0       -0.266117    2.537358    0.492261
      4          6           0        0.655882    0.596466    0.344250
      5          8           0        1.652639   -0.003707   -0.362214
      6          6           0        2.026878   -1.309716    0.068388
      7          1           0        1.216403   -2.018977   -0.117183
      8          1           0        2.902936   -1.585213   -0.515293
      9          1           0        2.278495   -1.312128    1.135185
     10          1           0        0.743128    0.429329    1.420378
     11          1           0        1.489693    2.550045    0.206109
     12         35           0       -1.181428   -0.306671   -0.023770
 ---------------------------------------------------------------------

 SCF Done:  E(RB3LYP) =  -2767.94690084     A.U. after    1 cycles

 The electronic state is 1-A.
 Alpha  occ. eigenvalues -- -482.79920 -62.45242 -56.27234 -56.26905 -56.26896
 Alpha  occ. eigenvalues --  -19.16175 -10.28743 -10.22902 -10.17929  -8.66185
 Alpha  occ. eigenvalues --   -6.49191  -6.48111  -6.48080  -2.60299  -2.60007
 Alpha  occ. eigenvalues --   -2.59983  -2.59126  -2.59126  -1.08466  -0.80627
 Alpha  occ. eigenvalues --   -0.73914  -0.70588  -0.61429  -0.53077  -0.48820
 Alpha  occ. eigenvalues --   -0.48669  -0.44127  -0.40841  -0.40243  -0.36976
 Alpha  occ. eigenvalues --   -0.35146  -0.28870  -0.27426  -0.27030
 Alpha virt. eigenvalues --   -0.02133   0.04129   0.06086   0.08016   0.09739
 Alpha virt. eigenvalues --    0.10814   0.11840   0.12491   0.12613   0.18724
 Alpha virt. eigenvalues --    0.22276   0.27377   0.28203   0.28796   0.30921

 Mulliken charges:
               1
     1  C   -0.604534
     2  H    0.238705
     3  H    0.230094
     4  C   -0.103047
     5  O   -0.275189
     6  C   -0.431984
     7  H    0.232742
     8  H    0.224135
     9  H    0.200831
    10  H    0.231076
    11  H    0.219231
    12  Br  -0.162061
 Sum of Mulliken charges =  -0.00000

 Dipole moment (field-independent basis, Debye):
    X=              2.3977    Y=              0.2857    Z=              1.2037  Tot=              2.6981
 Quadrupole moment (field-independent basis, Debye-Ang):
   XX=            -43.9325   YY=            -40.5544   ZZ=            -44.4053
   XY=             -2.4416   XZ=              1.6994   YZ=              0.5241

  Exact polarizability:  70.163   3.523  57.630   1.895   1.049  42.649
 Approx polarizability: 104.142  12.096  74.611   2.205   2.057  62.625

                      1                      2                      3
                      A                      A                      A
 Frequencies --    124.9306               175.6737               237.1405
 Red. masses --      1.7152                 1.5579                 1.4159
 Frc consts  --      0.0158                 0.0283                 0.0469
 IR Inten    --      3.4167                 4.4776                 2.8329

                      4                      5                      6
                      A                      A                      A
 Frequencies --    253.2770               272.4451               347.0283
 Red. masses --      2.4295                 2.4703                 3.2003
 Frc consts  --      0.0918                 0.1080                 0.2271
 IR Inten    --      3.3463                10.4144                 5.6495

                      7                      8                      9
                      A                      A                      A
 Frequencies --    503.2411               539.6194               888.2432
 Red. masses --      3.3558                 3.3507                 2.1660
 Frc consts  --      0.5007                 0.5749                 1.0069
 IR Inten    --     26.1229                84.8876                50.8848

                     10                     11                     12
                      A                      A                      A
 Frequencies --   1002.5428              1075.6191              1129.8009
 Red. masses --      1.6629                 2.6199                 1.7052
 Frc consts  --      0.9847                 1.7859                 1.2824
 IR Inten    --      7.4884                49.8798                75.1746

                     13                     14                     15
                      A                      A                      A
 Frequencies --   1178.0693              1183.6621              1221.9465
 Red. masses --      2.0513                 1.4966                 1.3464
 Frc consts  --      1.6774                 1.2354                 1.1845
 IR Inten    --    134.4415                53.5344                83.5061

                     16                     17                     18
                      A                      A                      A
 Frequencies --   1285.6574              1400.3513              1435.4186
 Red. masses --      1.7098                 1.2225                 1.3365
 Frc consts  --      1.6651                 1.4125                 1.6224
 IR Inten    --     65.8019                 8.9180                31.6783

                     19                     20                     21
                      A                      A                      A
 Frequencies --   1489.6864              1497.4081              1502.8156
 Red. masses --      1.1313                 1.0538                 1.0423
 Frc consts  --      1.4792                 1.3921                 1.3870
 IR Inten    --      7.5895                 5.2992                 9.0904

                     22                     23                     24
                      A                      A                      A
 Frequencies --   1508.7572              1520.8743              3016.1816
 Red. masses --      1.0854                 1.0502                 1.0387
 Frc consts  --      1.4558                 1.4312                 5.5673
 IR Inten    --      6.6917                13.0683                46.2863

                     25                     26                     27
                      A                      A                      A
 Frequencies --   3042.7792              3070.6176              3088.9077
 Red. masses --      1.0426                 1.0873                 1.1002
 Frc consts  --      5.6871                 6.0403                 6.1851
 IR Inten    --     17.0782                26.1577                26.2499

                     28                     29                     30
                      A                      A                      A
 Frequencies --   3116.8237              3148.9961              3150.5801
 Red. masses --      1.0940                 1.1039                 1.1023
 Frc consts  --      6.2620                 6.4495                 6.4464
 IR Inten    --     13.4712                12.2024                22.4837

 - Thermochemistry -
 -------------------
 Temperature   298.150 Kelvin.  Pressure   1.00000 Atm.
 Atom     1 has atomic number  6 and mass  12.00000

 Molecular mass:   137.96803 amu.
 Principal axes and moments of inertia in atomic units:
                           1         2         3
     Eigenvalues --   417.47773 845.598331200.52097
           X            0.99761  -0.06865   0.00809
           Y            0.06869   0.99763  -0.00503
           Z           -0.00773   0.00558   0.99995
 This molecule is an asymmetric top.
 Rotational symmetry number  1.
 Rotational temperatures (Kelvin)      0.20747     0.10243     0.07215
 Rotational constants (GHZ):           4.32296     2.13428     1.50330
 Zero-point vibrational energy     259644.0 (Joules/Mol)
                                   62.05642 (Kcal/Mol)
 Warning -- explicit consideration of   8 degrees of freedom as
           vibrations may cause significant error
 Vibrational temperatures:    179.75   252.76   341.19   364.41   391.99
          (Kelvin)            499.30   724.05   776.39  1277.98  1442.44
                             1547.58  1625.53  1694.98  1703.03  1758.11
                             1849.77  2014.79  2065.25  2143.33  2154.44
                             2162.22  2170.77  2188.20  4339.61  4377.88
                             4417.93  4444.25  4484.41  4530.70  4532.98

 Zero-point correction=                           0.098893 (Hartree/Particle)
 Thermal correction to Energy=                    0.105483
 Thermal correction to Enthalpy=                  0.106427
 Thermal correction to Gibbs Free Energy=         0.067593
 Sum of electronic and zero-point Energies=          -2767.848008
 Sum of electronic and thermal Energies=             -2767.841418
 Sum of electronic and thermal Enthalpies=           -2767.840474
 Sum of electronic and thermal Free Energies=        -2767.879308

                     E (Thermal)             CV                S
                      KCal/Mol        Cal/Mol-Kelvin    Cal/Mol-Kelvin
 Total                   66.191             21.813             81.733
 Electronic               0.000              0.000              0.000
 Translational            0.889              2.981             40.677
 Rotational               0.889              2.981             27.541
 Vibrational             64.414             15.852             13.516
 Vibration     1          0.610              1.928              3.023
 Vibration     2          0.628              1.872              2.374
 Vibration     3          0.656              1.784              1.824
 Vibration     4          0.664              1.757              1.708
 Vibration     5          0.675              1.724              1.581
 Vibration     6          0.725              1.581              1.180
 Vibration     7          0.859              1.243              0.650
 Vibration     8          0.895              1.162              0.566

 Optimization completed.
    -- Stationary point found.
 Normal termination of Gaussian 16 at Thu Jul 13 12:33:19 2023.
