 Gaussian 16, Revision A.03,
 Gaussian 16:  ES64L-G16RevA.03 25-Dec-2016

 ------------------------
 # opt freq b3lyp/6-311g*
 ------------------------

 -------------------
 Title Card Required
 -------------------
 Symbolic Z-matrix:
 Charge =  0 Multiplicity = 1

 SCF Done:  E(RB3LYP) =  -193.150717137     A.U. after   13 cycles
 SCF Done:  E(RB3LYP) =  -193.158169794     A.U. after   12 cycles
 SCF Done:  E(RB3LYP) =  -193.158841808     A.U. after   11 cycles
 SCF Done:  E(RB3LYP) =  -193.158953648     A.U. after   10 cycles
 SCF Done:  E(RB3LYP) =  -193.159012309     A.U. after   10 cycles
 SCF Done:  E(RB3LYP) =  -193.159031559     A.U. after   10 cycles
 SCF Done:  E(RB3LYP) =  -193.159042578     A.U. after   10 cycles
 SCF Done:  E(RB3LYP) =  -193.159047960     A.U. after   10 cycles
 SCF Done:  E(RB3LYP) =  -193.159051602     A.U. after    9 cycles
 SCF Done:  E(RB3LYP) =  -193.159055281     A.U. after   10 cycles
 SCF Done:  E(RB3LYP) =  -193.159056137     A.U. after    9 cycles
 SCF Done:  E(RB3LYP) =  -193.159056245     A.U. after    8 cycles
 SCF Done:  E(RB3LYP) =  -193.159056274     A.U. after    8 cycles
 Optimization completed.
    -- Stationary point found.
 Normal termination of Gaussian 16 at Thu Jul 13 12:33:47 2023.

 ---------------------------------------------------------------------
 #N Geom=AllCheck Guess=TCheck SCRF=Check GenChk RB3LYP/6-311G(d) Freq
 ---------------------------------------------------------------------

 Structure from the checkpoint file:  "/home/kimariyb/g16/scratch/Gau-150378.chk"
 -------------------
 Title Card Required
 -------------------
 Charge =  0 Multiplicity = 1

                         Standard orientation:
 ---------------------------------------------------------------------
 Center     Atomic      Atomic             Coordinates (Angstroms)
 Number     Number       Type             X           Y           Z
 ---------------------------------------------------------------------
      1          6           0        1.875325   -0.070897    0.022763
      2          1           0        2.115473   -1.127093    0.056466
      3          1           0        2.687076    0.644229    0.019414
      4          6           0        0.614847    0.350485   -0.020900
      5          1           0        0.362240    1.409990   -0.054507
      6          8           0       -0.444604   -0.501703   -0.039630
      7          6           0       -1.724847    0.109449    0.026463
      8          1           0       -1.881942    0.799831   -0.810444
      9          1           0       -2.455229   -0.695591   -0.034790
     10          1           0       -1.862738    0.648034    0.970945
 ---------------------------------------------------------------------

 SCF Done:  E(RB3LYP) =  -193.159056274     A.U. after    1 cycles

 The electronic state is 1-A.
 Alpha  occ. eigenvalues --  -19.14451 -10.22422 -10.22097 -10.14767  -1.06414
 Alpha  occ. eigenvalues --   -0.76968  -0.69079  -0.58198  -0.51642  -0.47324
 Alpha  occ. eigenvalues --   -0.46926  -0.40807  -0.39336  -0.34992  -0.33653
 Alpha  occ. eigenvalues --   -0.22677
 Alpha virt. eigenvalues --    0.02502   0.04738   0.07054   0.09383   0.10644
 Alpha virt. eigenvalues --    0.11762   0.12296   0.13630   0.25312   0.29423
 Alpha virt. eigenvalues --    0.30894   0.32773   0.34473   0.39863   0.42065

 Mulliken charges:
               1
     1  C   -0.491181
     2  H    0.208114
     3  H    0.202993
     4  C    0.015343
     5  H    0.177717
     6  O   -0.299497
     7  C   -0.443086
     8  H    0.202538
     9  H    0.222757
    10  H    0.204303
 Sum of Mulliken charges =  -0.00000

 Dipole moment (field-independent basis, Debye):
    X=             -1.2823    Y=              1.2654    Z=              0.0553  Tot=              1.8024
 Quadrupole moment (field-independent basis, Debye-Ang):
   XX=            -21.7929   YY=            -24.6034   ZZ=            -27.1775
   XY=             -0.2410   XZ=             -0.0140   YZ=             -0.1493

  Exact polarizability:  57.320  -3.266  34.054   0.335  -0.315  25.233
 Approx polarizability:  75.058  -5.400  46.493   0.805  -0.339  33.387

                      1                      2                      3
                      A                      A                      A
 Frequencies --     19.5519               173.2919               314.8327
 Red. masses --      1.9917                 1.2938                 2.4387
 Frc consts  --      0.0004                 0.0229                 0.1424
 IR Inten    --      0.2440                 4.0556                 1.4070

                      4                      5                      6
                      A                      A                      A
 Frequencies --    526.1544               703.3643               828.2851
 Red. masses --      2.7025                 1.4763                 1.4459
 Frc consts  --      0.4408                 0.4303                 0.5844
 IR Inten    --      4.3789                 5.5467                60.0735

                      7                      8                      9
                      A                      A                      A
 Frequencies --    887.6347               971.7297              1116.1564
 Red. masses --      2.1947                 1.1042                 2.7363
 Frc consts  --      1.0188                 0.6143                 2.0084
 IR Inten    --     13.0190                26.1157                45.7964

                     10                     11                     12
                      A                      A                      A
 Frequencies --   1165.4803              1182.8572              1268.1771
 Red. masses --      2.1333                 1.2653                 2.1942
 Frc consts  --      1.7073                 1.0430                 2.0792
 IR Inten    --    140.5419                 0.8768               162.5893

                     13                     14                     15
                      A                      A                      A
 Frequencies --   1351.0125              1435.6568              1497.1712
 Red. masses --      1.1895                 1.1773                 1.1661
 Frc consts  --      1.2791                 1.4296                 1.5400
 IR Inten    --     11.5085                 9.9151                 0.6600

                     16                     17                     18
                      A                      A                      A
 Frequencies --   1510.5126              1520.4521              1717.3990
 Red. masses --      1.0453                 1.0492                 4.3265
 Frc consts  --      1.4053                 1.4290                 7.5184
 IR Inten    --      7.3375                24.2733               151.8328

                     19                     20                     21
                      A                      A                      A
 Frequencies --   3002.1466              3057.6739              3122.5728
 Red. masses --      1.0357                 1.1070                 1.0863
 Frc consts  --      5.4996                 6.0978                 6.2407
 IR Inten    --     78.0515                61.9066                21.2766

                     22                     23                     24
                      A                      A                      A
 Frequencies --   3139.3702              3159.5550              3249.8803
 Red. masses --      1.0986                 1.0653                 1.1173
 Frc consts  --      6.3795                 6.2658                 6.9524
 IR Inten    --     29.5250                 0.4794                11.3571

 - Thermochemistry -
 -------------------
 Temperature   298.150 Kelvin.  Pressure   1.00000 Atm.
 Atom     1 has atomic number  6 and mass  12.00000

 Molecular mass:    58.04186 amu.
 Principal axes and moments of inertia in atomic units:
                           1         2         3
     Eigenvalues --    44.87072 401.10537 434.09879
           X            0.99993  -0.01170  -0.00031
           Y            0.01169   0.99985  -0.01267
           Z            0.00046   0.01266   0.99992
 This molecule is an asymmetric top.
 Rotational symmetry number  1.
 Rotational temperatures (Kelvin)      1.93030     0.21594     0.19953
 Rotational constants (GHZ):          40.22091     4.49942     4.15744
 Zero-point vibrational energy     220836.1 (Joules/Mol)
                                   52.78110 (Kcal/Mol)
 Warning -- explicit consideration of   4 degrees of freedom as
           vibrations may cause significant error
 Vibrational temperatures:     28.13   249.33   452.97   757.02  1011.98
          (Kelvin)           1191.72  1277.11  1398.10  1605.90  1676.87
                             1701.87  1824.62  1943.81  2065.59  2154.10
                             2173.29  2187.59  2470.95  4319.42  4399.31
                             4492.69  4516.85  4545.89  4675.85

 Zero-point correction=                           0.084112 (Hartree/Particle)
 Thermal correction to Energy=                    0.089441
 Thermal correction to Enthalpy=                  0.090385
 Thermal correction to Gibbs Free Energy=         0.055378
 Sum of electronic and zero-point Energies=           -193.074944
 Sum of electronic and thermal Energies=              -193.069616
 Sum of electronic and thermal Enthalpies=            -193.068671
 Sum of electronic and thermal Free Energies=         -193.103678

                     E (Thermal)             CV                S
                      KCal/Mol        Cal/Mol-Kelvin    Cal/Mol-Kelvin
 Total                   56.125             16.361             73.677
 Electronic               0.000              0.000              0.000
 Translational            0.889              2.981             38.096
 Rotational               0.889              2.981             23.573
 Vibrational             54.347             10.400             12.008
 Vibration     1          0.593              1.986              6.679
 Vibration     2          0.627              1.875              2.399
 Vibration     3          0.702              1.645              1.337
 Vibration     4          0.881              1.192              0.596

                           ! Non-Optimized Parameters !
 Normal termination of Gaussian 16 at Thu Jul 13 12:33:57 2023.
