 Gaussian 16, Revision A.03,
 Gaussian 16:  ES64L-G16RevA.03 25-Dec-2016

 -----------------------------------------
 # b2plypd3/def2tzvpp scrf=(solvent=water)
 -----------------------------------------

 -------------------
 Title Card Required
 -------------------
 Symbolic Z-matrix:
 Charge =  1 Multiplicity = 1

                         Standard orientation:
 ---------------------------------------------------------------------
 Center     Atomic      Atomic             Coordinates (Angstroms)
 Number     Number       Type             X           Y           Z
 ---------------------------------------------------------------------
      1          8           0        0.000000    0.078609   -0.000000
      2          1           0        0.931863   -0.208178   -0.000000
      3          1           0       -0.465931   -0.210347    0.806457
      4          1           0       -0.465931   -0.210347   -0.806457
 ---------------------------------------------------------------------

 SCF Done:  E(RB2PLYPD3) =  -76.7312426855     A.U. after    8 cycles
 E2(B2PLYPD3) =    -0.8090826182D-01 E(B2PLYPD3) =    -0.76812150947354D+02

 The electronic state is 1-A'.
 Alpha  occ. eigenvalues --  -19.92386  -1.35935  -0.78186  -0.78156  -0.59774
 Alpha virt. eigenvalues --    0.01030   0.10446   0.10451   0.33099   0.33127
 Alpha virt. eigenvalues --    0.36932   0.40863   0.50952   0.50952   0.56657
 Alpha virt. eigenvalues --    0.57918   0.57956   0.93813   0.97805   1.04004

 Mulliken charges:
               1
     1  O   -0.069585
     2  H    0.356551
     3  H    0.356517
     4  H    0.356517
 Sum of Mulliken charges =   1.00000

 Dipole moment (field-independent basis, Debye):
    X=              0.0006    Y=             -1.6563    Z=             -0.0000  Tot=              1.6563
 Quadrupole moment (field-independent basis, Debye-Ang):
   XX=             -2.4965   YY=             -6.1513   ZZ=             -2.5023
   XY=              0.0062   XZ=              0.0000   YZ=              0.0000

 Normal termination of Gaussian 16 at Fri Jul 21 15:15:38 2023.
