 Gaussian 16, Revision A.03,
 Gaussian 16:  ES64L-G16RevA.03 25-Dec-2016

 -------------------------
 # b3lyp/6-311g** opt freq
 -------------------------

 -------------------
 Title Card Required
 -------------------
 Symbolic Z-matrix:
 Charge =  0 Multiplicity = 1

 SCF Done:  E(RB3LYP) =  -188.609751865     A.U. after   10 cycles
 SCF Done:  E(RB3LYP) =  -188.641055657     A.U. after   10 cycles
 SCF Done:  E(RB3LYP) =  -188.641138774     A.U. after    7 cycles
 Optimization completed.
    -- Stationary point found.
 Normal termination of Gaussian 16 at Sun Jul 23 10:34:24 2023.

 ----------------------------------------------------------------------
 #N Geom=AllCheck Guess=TCheck SCRF=Check GenChk RB3LYP/6-311G(d,p) Fre
 q
 ----------------------------------------------------------------------

 Structure from the checkpoint file:  "/home/kimariyb/g16/scratch/Gau-171277.chk"
 -------------------
 Title Card Required
 -------------------
 Charge =  0 Multiplicity = 1

                         Standard orientation:
 ---------------------------------------------------------------------
 Center     Atomic      Atomic             Coordinates (Angstroms)
 Number     Number       Type             X           Y           Z
 ---------------------------------------------------------------------
      1          6           0        0.000000    0.000000    0.000000
      2          8           0        0.000000    0.000000    1.160389
      3          8           0        0.000000    0.000000   -1.160389
 ---------------------------------------------------------------------

 SCF Done:  E(RB3LYP) =  -188.641138774     A.U. after    1 cycles

 The electronic state is 1-SGG.
 Alpha  occ. eigenvalues --  -19.20311 -19.20311 -10.36032  -1.16825  -1.12904
 Alpha  occ. eigenvalues --   -0.56614  -0.52440  -0.52199  -0.52199  -0.37686
 Alpha  occ. eigenvalues --   -0.37686
 Alpha virt. eigenvalues --    0.02953   0.02953   0.06539   0.30325   0.35070
 Alpha virt. eigenvalues --    0.35070   0.49030   0.63690   0.69096   0.74700
 Alpha virt. eigenvalues --    0.74700   0.92383   0.92383   1.01090   1.18567

 Mulliken charges:
               1
     1  C    0.496709
     2  O   -0.248355
     3  O   -0.248355
 Sum of Mulliken charges =  -0.00000

 Dipole moment (field-independent basis, Debye):
    X=             -0.0000    Y=              0.0000    Z=             -0.0000  Tot=              0.0000
 Quadrupole moment (field-independent basis, Debye-Ang):
   XX=            -14.5656   YY=            -14.5656   ZZ=            -19.2422
   XY=              0.0000   XZ=              0.0000   YZ=              0.0000

  Exact polarizability:   7.740   0.000   7.740  -0.000   0.000  22.319
 Approx polarizability:   9.618  -0.000   9.618  -0.000  -0.000  45.276

                      1                      2                      3
                     PIU                    PIU                    SGG
 Frequencies --    666.3653               666.3653              1375.7396
 Red. masses --     12.8774                12.8774                15.9949
 Frc consts  --      3.3690                 3.3690                17.8363
 IR Inten    --     32.7983                32.7983                 0.0000

                      4
                     SGU
 Frequencies --   2436.3193
 Red. masses --     12.8774
 Frc consts  --     45.0345
 IR Inten    --    618.7923

 - Thermochemistry -
 -------------------
 Temperature   298.150 Kelvin.  Pressure   1.00000 Atm.
 Atom     1 has atomic number  6 and mass  12.00000

 Molecular mass:    43.98983 amu.
 Principal axes and moments of inertia in atomic units:
                           1         2         3
     Eigenvalues --     0.00000 153.82147 153.82147
           X           -0.00000   1.00000  -0.00000
           Y            0.00000   0.00000   1.00000
           Z            1.00000   0.00000  -0.00000
 This molecule is a prolate symmetric top.
 Rotational symmetry number  2.
 Rotational temperature (Kelvin)      0.56308
 Rotational constant (GHZ):          11.732701
 Zero-point vibrational energy      30772.7 (Joules/Mol)
                                    7.35485 (Kcal/Mol)
 Vibrational temperatures:    958.75   958.75  1979.38  3505.32
          (Kelvin)

 Zero-point correction=                           0.011721 (Hartree/Particle)
 Thermal correction to Energy=                    0.014343
 Thermal correction to Enthalpy=                  0.015288
 Thermal correction to Gibbs Free Energy=        -0.008973
 Sum of electronic and zero-point Energies=           -188.629418
 Sum of electronic and thermal Energies=              -188.626795
 Sum of electronic and thermal Enthalpies=            -188.625851
 Sum of electronic and thermal Free Energies=         -188.650112

                     E (Thermal)             CV                S
                      KCal/Mol        Cal/Mol-Kelvin    Cal/Mol-Kelvin
 Total                    9.001              6.875             51.061
 Electronic               0.000              0.000              0.000
 Translational            0.889              2.981             37.270
 Rotational               0.592              1.987             13.073
 Vibrational              7.519              1.907              0.717

 Optimization completed.
    -- Stationary point found.
 Normal termination of Gaussian 16 at Sun Jul 23 10:34:26 2023.
