 Gaussian 16, Revision A.03,
 Gaussian 16:  ES64L-G16RevA.03 25-Dec-2016

 -------------------------
 # b3lyp/6-311g** opt freq
 -------------------------

 -------------------
 Title Card Required
 -------------------
 Symbolic Z-matrix:
 Charge =  0 Multiplicity = 1

 SCF Done:  E(RB3LYP) =  -113.345921230     A.U. after   11 cycles
 SCF Done:  E(RB3LYP) =  -113.346224905     A.U. after    8 cycles
 SCF Done:  E(RB3LYP) =  -113.346234658     A.U. after    7 cycles
 Optimization completed.
    -- Stationary point found.
 Normal termination of Gaussian 16 at Sun Jul 23 10:34:28 2023.

 ----------------------------------------------------------------------
 #N Geom=AllCheck Guess=TCheck SCRF=Check GenChk RB3LYP/6-311G(d,p) Fre
 q
 ----------------------------------------------------------------------

 Structure from the checkpoint file:  "/home/kimariyb/g16/scratch/Gau-171832.chk"
 -------------------
 Title Card Required
 -------------------
 Charge =  0 Multiplicity = 1

                         Standard orientation:
 ---------------------------------------------------------------------
 Center     Atomic      Atomic             Coordinates (Angstroms)
 Number     Number       Type             X           Y           Z
 ---------------------------------------------------------------------
      1          6           0        0.000000    0.000000   -0.643976
      2          8           0        0.000000    0.000000    0.482982
 ---------------------------------------------------------------------

 SCF Done:  E(RB3LYP) =  -113.346234658     A.U. after    1 cycles

 The electronic state is 1-SG.
 Alpha  occ. eigenvalues --  -19.22943 -10.28746  -1.17202  -0.57948  -0.48055
 Alpha  occ. eigenvalues --   -0.48055  -0.38074
 Alpha virt. eigenvalues --   -0.02915  -0.02915   0.21625   0.38813   0.38813
 Alpha virt. eigenvalues --    0.42597   0.65610   0.75390   0.79159   0.79159
 Alpha virt. eigenvalues --    1.25676   1.25808   1.25808   1.41043   1.41043

 Mulliken charges:
               1
     1  C    0.079869
     2  O   -0.079869
 Sum of Mulliken charges =  -0.00000

 Dipole moment (field-independent basis, Debye):
    X=              0.0000    Y=              0.0000    Z=              0.1214  Tot=              0.1214
 Quadrupole moment (field-independent basis, Debye-Ang):
   XX=            -10.0943   YY=            -10.0943   ZZ=            -12.2192
   XY=              0.0000   XZ=              0.0000   YZ=              0.0000

  Exact polarizability:   8.649  -0.000   8.649  -0.000   0.000  13.173
 Approx polarizability:  11.586  -0.000  11.586  -0.000  -0.000  23.102

                      1
                     SG
 Frequencies --   2220.1847
 Red. masses --     13.4388
 Frc consts  --     39.0290
 IR Inten    --     76.4565

 - Thermochemistry -
 -------------------
 Temperature   298.150 Kelvin.  Pressure   1.00000 Atm.
 Atom     1 has atomic number  6 and mass  12.00000

 Molecular mass:    27.99491 amu.
 Principal axes and moments of inertia in atomic units:
                           1         2         3
     Eigenvalues --     0.00000  31.09549  31.09549
           X            0.00000  -0.00000   1.00000
           Y            0.00000   1.00000   0.00000
           Z            1.00000   0.00000   0.00000
 This molecule is a prolate symmetric top.
 Rotational symmetry number  1.
 Rotational temperature (Kelvin)      2.78542
 Rotational constant (GHZ):          58.038679
 Zero-point vibrational energy      13279.7 (Joules/Mol)
                                    3.17391 (Kcal/Mol)
 Vibrational temperatures:   3194.35
          (Kelvin)

 Zero-point correction=                           0.005058 (Hartree/Particle)
 Thermal correction to Energy=                    0.007419
 Thermal correction to Enthalpy=                  0.008363
 Thermal correction to Gibbs Free Energy=        -0.014062
 Sum of electronic and zero-point Energies=           -113.341177
 Sum of electronic and thermal Energies=              -113.338816
 Sum of electronic and thermal Enthalpies=            -113.337872
 Sum of electronic and thermal Free Energies=         -113.360297

                     E (Thermal)             CV                S
                      KCal/Mol        Cal/Mol-Kelvin    Cal/Mol-Kelvin
 Total                    4.655              4.973             47.197
 Electronic               0.000              0.000              0.000
 Translational            0.889              2.981             35.923
 Rotational               0.592              1.987             11.274
 Vibrational              3.174              0.005              0.001

 Optimization completed.
    -- Stationary point found.
 Normal termination of Gaussian 16 at Sun Jul 23 10:34:29 2023.
