 Gaussian 16, Revision A.03,
 Gaussian 16:  ES64L-G16RevA.03 25-Dec-2016

 -------------------------
 # b3lyp/6-311g** opt freq
 -------------------------

 -------------------
 Title Card Required
 -------------------
 Symbolic Z-matrix:
 Charge =  0 Multiplicity = 1

 SCF Done:  E(RB3LYP) =  -76.4467006313     A.U. after    9 cycles
 SCF Done:  E(RB3LYP) =  -76.4474310276     A.U. after    8 cycles
 SCF Done:  E(RB3LYP) =  -76.4474484856     A.U. after    7 cycles
 Optimization completed.
    -- Stationary point found.
 Normal termination of Gaussian 16 at Sun Jul 23 10:34:34 2023.

 ----------------------------------------------------------------------
 #N Geom=AllCheck Guess=TCheck SCRF=Check GenChk RB3LYP/6-311G(d,p) Fre
 q
 ----------------------------------------------------------------------

 Structure from the checkpoint file:  "/home/kimariyb/g16/scratch/Gau-173045.chk"
 -------------------
 Title Card Required
 -------------------
 Charge =  0 Multiplicity = 1

                         Standard orientation:
 ---------------------------------------------------------------------
 Center     Atomic      Atomic             Coordinates (Angstroms)
 Number     Number       Type             X           Y           Z
 ---------------------------------------------------------------------
      1          8           0        0.000000    0.000000    0.118659
      2          1           0       -0.000000    0.756951   -0.474637
      3          1           0       -0.000000   -0.756951   -0.474637
 ---------------------------------------------------------------------

 SCF Done:  E(RB3LYP) =  -76.4474484856     A.U. after    1 cycles

 The electronic state is 1-A1.
 Alpha  occ. eigenvalues --  -19.10264  -1.00273  -0.52168  -0.37649  -0.29944
 Alpha virt. eigenvalues --    0.02867   0.10397   0.37834   0.42405   0.75994
 Alpha virt. eigenvalues --    0.76423   0.86217   1.06653   1.23982   1.26840
 Alpha virt. eigenvalues --    1.45903   1.65891   1.92120   2.05087   2.28836

 Mulliken charges:
               1
     1  O   -0.473515
     2  H    0.236758
     3  H    0.236758
 Sum of Mulliken charges =  -0.00000

 Dipole moment (field-independent basis, Debye):
    X=             -0.0000    Y=              0.0000    Z=             -2.0698  Tot=              2.0698
 Quadrupole moment (field-independent basis, Debye-Ang):
   XX=             -7.1996   YY=             -4.3286   ZZ=             -6.0591
   XY=              0.0000   XZ=              0.0000   YZ=             -0.0000

  Exact polarizability:   4.054   0.000   7.745   0.000  -0.000   5.945
 Approx polarizability:   4.314   0.000   9.533   0.000  -0.000   7.292

                      1                      2                      3
                     A1                     A1                     B2
 Frequencies --   1637.9010              3812.7675              3909.8378
 Red. masses --      1.0823                 1.0455                 1.0812
 Frc consts  --      1.7107                 8.9550                 9.7379
 IR Inten    --     58.1158                 3.5917                25.0445

 - Thermochemistry -
 -------------------
 Temperature   298.150 Kelvin.  Pressure   1.00000 Atm.
 Atom     1 has atomic number  8 and mass  15.99491

 Molecular mass:    18.01056 amu.
 Principal axes and moments of inertia in atomic units:
                           1         2         3
     Eigenvalues --     2.25014   4.12429   6.37443
           X            0.00000   0.00000   1.00000
           Y            1.00000   0.00000  -0.00000
           Z            0.00000   1.00000   0.00000
 This molecule is an asymmetric top.
 Rotational symmetry number  2.
 Rotational temperatures (Kelvin)     38.49263    21.00095    13.58771
 Rotational constants (GHZ):         802.05623   437.58873   283.12201
 Zero-point vibrational energy      55988.3 (Joules/Mol)
                                   13.38152 (Kcal/Mol)
 Vibrational temperatures:   2356.57  5485.72  5625.38
          (Kelvin)

 Zero-point correction=                           0.021325 (Hartree/Particle)
 Thermal correction to Energy=                    0.024160
 Thermal correction to Enthalpy=                  0.025104
 Thermal correction to Gibbs Free Energy=         0.003679
 Sum of electronic and zero-point Energies=            -76.426124
 Sum of electronic and thermal Energies=               -76.423288
 Sum of electronic and thermal Enthalpies=             -76.422344
 Sum of electronic and thermal Free Energies=          -76.443770

                     E (Thermal)             CV                S
                      KCal/Mol        Cal/Mol-Kelvin    Cal/Mol-Kelvin
 Total                   15.161              6.008             45.094
 Electronic               0.000              0.000              0.000
 Translational            0.889              2.981             34.608
 Rotational               0.889              2.981             10.480
 Vibrational             13.383              0.046              0.007

 Optimization completed.
    -- Stationary point found.
 Normal termination of Gaussian 16 at Sun Jul 23 10:34:35 2023.
